# vtk DataFile Version 3.0
vtk output
ASCII
DATASET UNSTRUCTURED_GRID
POINTS 11275 float
0.000000e+00 0.000000e+00 0.000000e+00
1.460000e-02 0.000000e+00 0.000000e+00
2.920000e-02 0.000000e+00 0.000000e+00
4.380000e-02 0.000000e+00 0.000000e+00
5.840000e-02 0.000000e+00 0.000000e+00
7.300000e-02 0.000000e+00 0.000000e+00
8.760000e-02 0.000000e+00 0.000000e+00
1.022000e-01 0.000000e+00 0.000000e+00
1.168000e-01 0.000000e+00 0.000000e+00
1.314000e-01 0.000000e+00 0.000000e+00
1.460000e-01 0.000000e+00 0.000000e+00
1.606000e-01 0.000000e+00 0.000000e+00
1.752000e-01 0.000000e+00 0.000000e+00
1.898000e-01 0.000000e+00 0.000000e+00
2.044000e-01 0.000000e+00 0.000000e+00
2.190000e-01 0.000000e+00 0.000000e+00
2.336000e-01 0.000000e+00 0.000000e+00
2.482000e-01 0.000000e+00 0.000000e+00
2.628000e-01 0.000000e+00 0.000000e+00
2.774000e-01 0.000000e+00 0.000000e+00
2.920000e-01 0.000000e+00 0.000000e+00
3.066000e-01 0.000000e+00 0.000000e+00
3.212000e-01 0.000000e+00 0.000000e+00
3.358000e-01 0.000000e+00 0.000000e+00
3.504000e-01 0.000000e+00 0.000000e+00
3.650000e-01 0.000000e+00 0.000000e+00
3.796000e-01 0.000000e+00 0.000000e+00
3.942000e-01 0.000000e+00 0.000000e+00
4.088000e-01 0.000000e+00 0.000000e+00
4.234000e-01 0.000000e+00 0.000000e+00
4.380000e-01 0.000000e+00 0.000000e+00
4.526000e-01 0.000000e+00 0.000000e+00
4.672000e-01 0.000000e+00 0.000000e+00
4.818000e-01 0.000000e+00 0.000000e+00
4.964000e-01 0.000000e+00 0.000000e+00
5.110000e-01 0.000000e+00 0.000000e+00
5.256000e-01 0.000000e+00 0.000000e+00
5.402000e-01 0.000000e+00 0.000000e+00
5.548000e-01 0.000000e+00 0.000000e+00
5.694000e-01 0.000000e+00 0.000000e+00
5.840000e-01 0.000000e+00 0.000000e+00
0.000000e+00 1.460000e-02 0.000000e+00
1.460000e-02 1.460000e-02 0.000000e+00
2.920000e-02 1.460000e-02 0.000000e+00
4.380000e-02 1.460000e-02 0.000000e+00
5.840000e-02 1.460000e-02 0.000000e+00
7.300000e-02 1.460000e-02 0.000000e+00
8.760000e-02 1.460000e-02 0.000000e+00
1.022000e-01 1.460000e-02 0.000000e+00
1.168000e-01 1.460000e-02 0.000000e+00
1.314000e-01 1.460000e-02 0.000000e+00
1.460000e-01 1.460000e-02 0.000000e+00
1.606000e-01 1.460000e-02 0.000000e+00
1.752000e-01 1.460000e-02 0.000000e+00
1.898000e-01 1.460000e-02 0.000000e+00
2.044000e-01 1.460000e-02 0.000000e+00
2.190000e-01 1.460000e-02 0.000000e+00
2.336000e-01 1.460000e-02 0.000000e+00
2.482000e-01 1.460000e-02 0.000000e+00
2.628000e-01 1.460000e-02 0.000000e+00
2.774000e-01 1.460000e-02 0.000000e+00
2.920000e-01 1.460000e-02 0.000000e+00
3.066000e-01 1.460000e-02 0.000000e+00
3.212000e-01 1.460000e-02 0.000000e+00
3.358000e-01 1.460000e-02 0.000000e+00
3.504000e-01 1.460000e-02 0.000000e+00
3.650000e-01 1.460000e-02 0.000000e+00
3.796000e-01 1.460000e-02 0.000000e+00
3.942000e-01 1.460000e-02 0.000000e+00
4.088000e-01 1.460000e-02 0.000000e+00
4.234000e-01 1.460000e-02 0.000000e+00
4.380000e-01 1.460000e-02 0.000000e+00
4.526000e-01 1.460000e-02 0.000000e+00
4.672000e-01 1.460000e-02 0.000000e+00
4.818000e-01 1.460000e-02 0.000000e+00
4.964000e-01 1.460000e-02 0.000000e+00
5.110000e-01 1.460000e-02 0.000000e+00
5.256000e-01 1.460000e-02 0.000000e+00
5.402000e-01 1.460000e-02 0.000000e+00
5.548000e-01 1.460000e-02 0.000000e+00
5.694000e-01 1.460000e-02 0.000000e+00
5.840000e-01 1.460000e-02 0.000000e+00
0.000000e+00 2.920000e-02 0.000000e+00
1.460000e-02 2.920000e-02 0.000000e+00
2.920000e-02 2.920000e-02 0.000000e+00
4.380000e-02 2.920000e-02 0.000000e+00
5.840000e-02 2.920000e-02 0.000000e+00
7.300000e-02 2.920000e-02 0.000000e+00
8.760000e-02 2.920000e-02 0.000000e+00
1.022000e-01 2.920000e-02 0.000000e+00
1.168000e-01 2.920000e-02 0.000000e+00
1.314000e-01 2.920000e-02 0.000000e+00
1.460000e-01 2.920000e-02 0.000000e+00
1.606000e-01 2.920000e-02 0.000000e+00
1.752000e-01 2.920000e-02 0.000000e+00
1.898000e-01 2.920000e-02 0.000000e+00
2.044000e-01 2.920000e-02 0.000000e+00
2.190000e-01 2.920000e-02 0.000000e+00
2.336000e-01 2.920000e-02 0.000000e+00
2.482000e-01 2.920000e-02 0.000000e+00
2.628000e-01 2.920000e-02 0.000000e+00
2.774000e-01 2.920000e-02 0.000000e+00
2.920000e-01 2.920000e-02 0.000000e+00
3.066000e-01 2.920000e-02 0.000000e+00
3.212000e-01 2.920000e-02 0.000000e+00
3.358000e-01 2.920000e-02 0.000000e+00
3.504000e-01 2.920000e-02 0.000000e+00
3.650000e-01 2.920000e-02 0.000000e+00
3.796000e-01 2.920000e-02 0.000000e+00
3.942000e-01 2.920000e-02 0.000000e+00
4.088000e-01 2.920000e-02 0.000000e+00
4.234000e-01 2.920000e-02 0.000000e+00
4.380000e-01 2.920000e-02 0.000000e+00
4.526000e-01 2.920000e-02 0.000000e+00
4.672000e-01 2.920000e-02 0.000000e+00
4.818000e-01 2.920000e-02 0.000000e+00
4.964000e-01 2.920000e-02 0.000000e+00
5.110000e-01 2.920000e-02 0.000000e+00
5.256000e-01 2.920000e-02 0.000000e+00
5.402000e-01 2.920000e-02 0.000000e+00
5.548000e-01 2.920000e-02 0.000000e+00
5.694000e-01 2.920000e-02 0.000000e+00
5.840000e-01 2.920000e-02 0.000000e+00
0.000000e+00 4.380000e-02 0.000000e+00
1.460000e-02 4.380000e-02 0.000000e+00
2.920000e-02 4.380000e-02 0.000000e+00
4.380000e-02 4.380000e-02 0.000000e+00
5.840000e-02 4.380000e-02 0.000000e+00
7.300000e-02 4.380000e-02 0.000000e+00
8.760000e-02 4.380000e-02 0.000000e+00
1.022000e-01 4.380000e-02 0.000000e+00
1.168000e-01 4.380000e-02 0.000000e+00
1.314000e-01 4.380000e-02 0.000000e+00
1.460000e-01 4.380000e-02 0.000000e+00
1.606000e-01 4.380000e-02 0.000000e+00
1.752000e-01 4.380000e-02 0.000000e+00
1.898000e-01 4.380000e-02 0.000000e+00
2.044000e-01 4.380000e-02 0.000000e+00
2.190000e-01 4.380000e-02 0.000000e+00
2.336000e-01 4.380000e-02 0.000000e+00
2.482000e-01 4.380000e-02 0.000000e+00
2.628000e-01 4.380000e-02 0.000000e+00
2.774000e-01 4.380000e-02 0.000000e+00
2.920000e-01 4.380000e-02 0.000000e+00
3.066000e-01 4.380000e-02 0.000000e+00
3.212000e-01 4.380000e-02 0.000000e+00
3.358000e-01 4.380000e-02 0.000000e+00
3.504000e-01 4.380000e-02 0.000000e+00
3.650000e-01 4.380000e-02 0.000000e+00
3.796000e-01 4.380000e-02 0.000000e+00
3.942000e-01 4.380000e-02 0.000000e+00
4.088000e-01 4.380000e-02 0.000000e+00
4.234000e-01 4.380000e-02 0.000000e+00
4.380000e-01 4.380000e-02 0.000000e+00
4.526000e-01 4.380000e-02 0.000000e+00
4.672000e-01 4.380000e-02 0.000000e+00
4.818000e-01 4.380000e-02 0.000000e+00
4.964000e-01 4.380000e-02 0.000000e+00
5.110000e-01 4.380000e-02 0.000000e+00
5.256000e-01 4.380000e-02 0.000000e+00
5.402000e-01 4.380000e-02 0.000000e+00
5.548000e-01 4.380000e-02 0.000000e+00
5.694000e-01 4.380000e-02 0.000000e+00
5.840000e-01 4.380000e-02 0.000000e+00
0.000000e+00 5.840000e-02 0.000000e+00
1.460000e-02 5.840000e-02 0.000000e+00
2.920000e-02 5.840000e-02 0.000000e+00
4.380000e-02 5.840000e-02 0.000000e+00
5.840000e-02 5.840000e-02 0.000000e+00
7.300000e-02 5.840000e-02 0.000000e+00
8.760000e-02 5.840000e-02 0.000000e+00
1.022000e-01 5.840000e-02 0.000000e+00
1.168000e-01 5.840000e-02 0.000000e+00
1.314000e-01 5.840000e-02 0.000000e+00
1.460000e-01 5.840000e-02 0.000000e+00
1.606000e-01 5.840000e-02 0.000000e+00
1.752000e-01 5.840000e-02 0.000000e+00
1.898000e-01 5.840000e-02 0.000000e+00
2.044000e-01 5.840000e-02 0.000000e+00
2.190000e-01 5.840000e-02 0.000000e+00
2.336000e-01 5.840000e-02 0.000000e+00
2.482000e-01 5.840000e-02 0.000000e+00
2.628000e-01 5.840000e-02 0.000000e+00
2.774000e-01 5.840000e-02 0.000000e+00
2.920000e-01 5.840000e-02 0.000000e+00
3.066000e-01 5.840000e-02 0.000000e+00
3.212000e-01 5.840000e-02 0.000000e+00
3.358000e-01 5.840000e-02 0.000000e+00
3.504000e-01 5.840000e-02 0.000000e+00
3.650000e-01 5.840000e-02 0.000000e+00
3.796000e-01 5.840000e-02 0.000000e+00
3.942000e-01 5.840000e-02 0.000000e+00
4.088000e-01 5.840000e-02 0.000000e+00
4.234000e-01 5.840000e-02 0.000000e+00
4.380000e-01 5.840000e-02 0.000000e+00
4.526000e-01 5.840000e-02 0.000000e+00
4.672000e-01 5.840000e-02 0.000000e+00
4.818000e-01 5.840000e-02 0.000000e+00
4.964000e-01 5.840000e-02 0.000000e+00
5.110000e-01 5.840000e-02 0.000000e+00
5.256000e-01 5.840000e-02 0.000000e+00
5.402000e-01 5.840000e-02 0.000000e+00
5.548000e-01 5.840000e-02 0.000000e+00
5.694000e-01 5.840000e-02 0.000000e+00
5.840000e-01 5.840000e-02 0.000000e+00
0.000000e+00 7.300000e-02 0.000000e+00
1.460000e-02 7.300000e-02 0.000000e+00
2.920000e-02 7.300000e-02 0.000000e+00
4.380000e-02 7.300000e-02 0.000000e+00
5.840000e-02 7.300000e-02 0.000000e+00
7.300000e-02 7.300000e-02 0.000000e+00
8.760000e-02 7.300000e-02 0.000000e+00
1.022000e-01 7.300000e-02 0.000000e+00
1.168000e-01 7.300000e-02 0.000000e+00
1.314000e-01 7.300000e-02 0.000000e+00
1.460000e-01 7.300000e-02 0.000000e+00
1.606000e-01 7.300000e-02 0.000000e+00
1.752000e-01 7.300000e-02 0.000000e+00
1.898000e-01 7.300000e-02 0.000000e+00
2.044000e-01 7.300000e-02 0.000000e+00
2.190000e-01 7.300000e-02 0.000000e+00
2.336000e-01 7.300000e-02 0.000000e+00
2.482000e-01 7.300000e-02 0.000000e+00
2.628000e-01 7.300000e-02 0.000000e+00
2.774000e-01 7.300000e-02 0.000000e+00
2.920000e-01 7.300000e-02 0.000000e+00
3.066000e-01 7.300000e-02 0.000000e+00
3.212000e-01 7.300000e-02 0.000000e+00
3.358000e-01 7.300000e-02 0.000000e+00
3.504000e-01 7.300000e-02 0.000000e+00
3.650000e-01 7.300000e-02 0.000000e+00
3.796000e-01 7.300000e-02 0.000000e+00
3.942000e-01 7.300000e-02 0.000000e+00
4.088000e-01 7.300000e-02 0.000000e+00
4.234000e-01 7.300000e-02 0.000000e+00
4.380000e-01 7.300000e-02 0.000000e+00
4.526000e-01 7.300000e-02 0.000000e+00
4.672000e-01 7.300000e-02 0.000000e+00
4.818000e-01 7.300000e-02 0.000000e+00
4.964000e-01 7.300000e-02 0.000000e+00
5.110000e-01 7.300000e-02 0.000000e+00
5.256000e-01 7.300000e-02 0.000000e+00
5.402000e-01 7.300000e-02 0.000000e+00
5.548000e-01 7.300000e-02 0.000000e+00
5.694000e-01 7.300000e-02 0.000000e+00
5.840000e-01 7.300000e-02 0.000000e+00
0.000000e+00 8.760000e-02 0.000000e+00
1.460000e-02 8.760000e-02 0.000000e+00
2.920000e-02 8.760000e-02 0.000000e+00
4.380000e-02 8.760000e-02 0.000000e+00
5.840000e-02 8.760000e-02 0.000000e+00
7.300000e-02 8.760000e-02 0.000000e+00
8.760000e-02 8.760000e-02 0.000000e+00
1.022000e-01 8.760000e-02 0.000000e+00
[...]
POINT_DATA 11275
VECTORS Velocity float
0.000000e+00 0.000000e+00 0.000000e+00
8.398418e-02 0.000000e+00 0.000000e+00
1.625847e-01 0.000000e+00 0.000000e+00
2.433393e-01 0.000000e+00 0.000000e+00
3.281349e-01 0.000000e+00 0.000000e+00
4.180991e-01 0.000000e+00 0.000000e+00
5.158229e-01 0.000000e+00 0.000000e+00
6.223198e-01 0.000000e+00 0.000000e+00
7.374463e-01 0.000000e+00 0.000000e+00
8.606096e-01 0.000000e+00 0.000000e+00
9.856215e-01 0.000000e+00 0.000000e+00
1.110409e+00 0.000000e+00 0.000000e+00
1.230297e+00 0.000000e+00 0.000000e+00
1.342617e+00 0.000000e+00 0.000000e+00
1.447268e+00 0.000000e+00 0.000000e+00
1.543558e+00 0.000000e+00 0.000000e+00
1.631764e+00 0.000000e+00 0.000000e+00
1.714713e+00 0.000000e+00 0.000000e+00
1.794255e+00 0.000000e+00 0.000000e+00
1.863755e+00 0.000000e+00 0.000000e+00
1.930136e+00 0.000000e+00 0.000000e+00
1.968565e+00 0.000000e+00 0.000000e+00
1.616822e+00 0.000000e+00 0.000000e+00
1.406432e+00 0.000000e+00 0.000000e+00
1.098711e+00 0.000000e+00 0.000000e+00
9.135336e-01 0.000000e+00 0.000000e+00
7.342530e-01 0.000000e+00 0.000000e+00
6.128081e-01 0.000000e+00 0.000000e+00
5.071195e-01 0.000000e+00 0.000000e+00
4.265268e-01 0.000000e+00 0.000000e+00
3.576562e-01 0.000000e+00 0.000000e+00
3.003893e-01 0.000000e+00 0.000000e+00
2.511470e-01 0.000000e+00 0.000000e+00
2.081253e-01 0.000000e+00 0.000000e+00
1.703542e-01 0.000000e+00 0.000000e+00
1.363191e-01 0.000000e+00 0.000000e+00
1.055001e-01 0.000000e+00 0.000000e+00
7.696586e-02 0.000000e+00 0.000000e+00
5.021084e-02 0.000000e+00 0.000000e+00
2.473271e-02 0.000000e+00 0.000000e+00
0.000000e+00 0.000000e+00 0.000000e+00
0.000000e+00 -2.231542e-04 0.000000e+00
8.392238e-02 -2.020220e-04 0.000000e+00
1.625207e-01 -1.969870e-04 0.000000e+00
2.432675e-01 -2.069120e-04 0.000000e+00
3.280596e-01 -2.251353e-04 0.000000e+00
4.180143e-01 -2.527848e-04 0.000000e+00
5.157254e-01 -2.926945e-04 0.000000e+00
6.222007e-01 -3.432699e-04 0.000000e+00
7.372975e-01 -4.068095e-04 0.000000e+00
8.604222e-01 -4.620397e-04 0.000000e+00
9.853890e-01 -5.161015e-04 0.000000e+00
1.110129e+00 -5.618533e-04 0.000000e+00
1.229965e+00 -5.994025e-04 0.000000e+00
1.342232e+00 -6.407846e-04 0.000000e+00
1.446831e+00 -6.817934e-04 0.000000e+00
1.543067e+00 -7.170606e-04 0.000000e+00
1.631220e+00 -7.634848e-04 0.000000e+00
1.714115e+00 -8.218277e-04 0.000000e+00
1.793601e+00 -8.232339e-04 0.000000e+00
1.863017e+00 -8.802687e-04 0.000000e+00
1.929315e+00 -8.152695e-04 0.000000e+00
1.967492e+00 -1.607978e-04 0.000000e+00
1.615508e+00 8.821573e-04 0.000000e+00
1.405454e+00 1.643030e-03 0.000000e+00
1.098072e+00 1.350528e-03 0.000000e+00
9.131835e-01 9.092537e-04 0.000000e+00
7.340892e-01 6.340087e-04 0.000000e+00
6.127316e-01 3.968357e-04 0.000000e+00
5.070960e-01 2.588482e-04 0.000000e+00
4.265223e-01 1.504948e-04 0.000000e+00
3.576675e-01 8.348066e-05 0.000000e+00
3.004056e-01 3.179183e-05 0.000000e+00
2.511687e-01 -2.804765e-06 0.000000e+00
2.081488e-01 -2.850704e-05 0.000000e+00
1.703793e-01 -4.693163e-05 0.000000e+00
1.363450e-01 -6.008034e-05 0.000000e+00
1.055258e-01 -7.002919e-05 0.000000e+00
7.699194e-02 -7.713553e-05 0.000000e+00
5.023367e-02 -8.270806e-05 0.000000e+00
2.475377e-02 -8.798220e-05 0.000000e+00
0.000000e+00 -9.586659e-05 0.000000e+00
0.000000e+00 -1.241490e-04 0.000000e+00
8.395000e-02 -1.594906e-04 0.000000e+00
1.625363e-01 -1.891403e-04 0.000000e+00
2.432724e-01 -2.217382e-04 0.000000e+00
3.280467e-01 -2.664186e-04 0.000000e+00
4.179802e-01 -3.228985e-04 0.000000e+00
5.156633e-01 -3.986873e-04 0.000000e+00
6.220999e-01 -4.908717e-04 0.000000e+00
7.371459e-01 -6.040150e-04 0.000000e+00
8.602066e-01 -7.049789e-04 0.000000e+00
9.850997e-01 -8.040360e-04 0.000000e+00
1.109761e+00 -8.892681e-04 0.000000e+00
1.229512e+00 -9.606467e-04 0.000000e+00
1.341692e+00 -1.036983e-03 0.000000e+00
1.446205e+00 -1.112684e-03 0.000000e+00
1.542353e+00 -1.178090e-03 0.000000e+00
1.630420e+00 -1.262058e-03 0.000000e+00
1.713231e+00 -1.364760e-03 0.000000e+00
1.792632e+00 -1.362460e-03 0.000000e+00
1.861928e+00 -1.465681e-03 0.000000e+00
1.928147e+00 -1.310408e-03 0.000000e+00
1.965886e+00 -1.882351e-04 0.000000e+00
1.613342e+00 1.646379e-03 0.000000e+00
1.403786e+00 2.948690e-03 0.000000e+00
1.096891e+00 2.431558e-03 0.000000e+00
9.124020e-01 1.688821e-03 0.000000e+00
7.336078e-01 1.251228e-03 0.000000e+00
6.123971e-01 8.550555e-04 0.000000e+00
5.068820e-01 6.174127e-04 0.000000e+00
4.263595e-01 4.254773e-04 0.000000e+00
3.575555e-01 3.046907e-04 0.000000e+00
3.003160e-01 2.120169e-04 0.000000e+00
2.511026e-01 1.502896e-04 0.000000e+00
2.080942e-01 1.056076e-04 0.000000e+00
1.703361e-01 7.441537e-05 0.000000e+00
1.363081e-01 5.363997e-05 0.000000e+00
1.054952e-01 3.880263e-05 0.000000e+00
7.696505e-02 3.087429e-05 0.000000e+00
5.021245e-02 2.572016e-05 0.000000e+00
2.473686e-02 2.723257e-05 0.000000e+00
0.000000e+00 3.478298e-05 0.000000e+00
0.000000e+00 -3.733285e-04 0.000000e+00
8.391420e-02 -3.412075e-04 0.000000e+00
1.624877e-01 -3.410376e-04 0.000000e+00
2.432071e-01 -3.682541e-04 0.000000e+00
3.279657e-01 -4.147057e-04 0.000000e+00
4.178785e-01 -4.803849e-04 0.000000e+00
5.155388e-01 -5.710112e-04 0.000000e+00
6.219460e-01 -6.825401e-04 0.000000e+00
7.369573e-01 -8.205235e-04 0.000000e+00
8.599730e-01 -9.454018e-04 0.000000e+00
9.848116e-01 -1.069799e-03 0.000000e+00
1.109411e+00 -1.178210e-03 0.000000e+00
1.229092e+00 -1.270988e-03 0.000000e+00
1.341199e+00 -1.370037e-03 0.000000e+00
1.445636e+00 -1.469260e-03 0.000000e+00
1.541707e+00 -1.555752e-03 0.000000e+00
1.629700e+00 -1.666624e-03 0.000000e+00
1.712441e+00 -1.798298e-03 0.000000e+00
1.791780e+00 -1.793484e-03 0.000000e+00
1.860987e+00 -1.925892e-03 0.000000e+00
1.927201e+00 -1.684142e-03 0.000000e+00
1.964515e+00 -2.518998e-04 0.000000e+00
1.611325e+00 2.172848e-03 0.000000e+00
1.402200e+00 3.796680e-03 0.000000e+00
1.095702e+00 3.110166e-03 0.000000e+00
9.115212e-01 2.171136e-03 0.000000e+00
7.330287e-01 1.624880e-03 0.000000e+00
6.119738e-01 1.115132e-03 0.000000e+00
5.066175e-01 7.985374e-04 0.000000e+00
4.261657e-01 5.389315e-04 0.000000e+00
3.574355e-01 3.703470e-04 0.000000e+00
3.002292e-01 2.400103e-04 0.000000e+00
2.510498e-01 1.505368e-04 0.000000e+00
2.080583e-01 8.470821e-05 0.000000e+00
1.703162e-01 3.694107e-05 0.000000e+00
1.362974e-01 3.352940e-06 0.000000e+00
1.054918e-01 -2.225608e-05 0.000000e+00
7.696688e-02 -3.969847e-05 0.000000e+00
5.021665e-02 -5.366780e-05 0.000000e+00
2.474274e-02 -6.416543e-05 0.000000e+00
0.000000e+00 -7.761941e-05 0.000000e+00
0.000000e+00 -2.176693e-04 0.000000e+00
8.390649e-02 -2.634967e-04 0.000000e+00
1.624618e-01 -3.045102e-04 0.000000e+00
2.431613e-01 -3.537497e-04 0.000000e+00
3.278957e-01 -4.203798e-04 0.000000e+00
4.177804e-01 -5.041415e-04 0.000000e+00
5.154093e-01 -6.142982e-04 0.000000e+00
6.217786e-01 -7.456151e-04 0.000000e+00
7.367477e-01 -9.052408e-04 0.000000e+00
8.597118e-01 -1.050016e-03 0.000000e+00
9.844897e-01 -1.194443e-03 0.000000e+00
1.109021e+00 -1.320952e-03 0.000000e+00
1.228624e+00 -1.430761e-03 0.000000e+00
1.340648e+00 -1.547216e-03 0.000000e+00
1.444999e+00 -1.664251e-03 0.000000e+00
1.540980e+00 -1.767052e-03 0.000000e+00
1.628889e+00 -1.898001e-03 0.000000e+00
1.711549e+00 -2.049072e-03 0.000000e+00
1.790817e+00 -2.047691e-03 0.000000e+00
1.859926e+00 -2.196754e-03 0.000000e+00
1.926143e+00 -1.899886e-03 0.000000e+00
1.962986e+00 -2.823103e-04 0.000000e+00
1.609121e+00 2.530478e-03 0.000000e+00
1.400453e+00 4.324803e-03 0.000000e+00
1.094371e+00 3.538588e-03 0.000000e+00
9.105057e-01 2.496531e-03 0.000000e+00
7.323439e-01 1.894661e-03 0.000000e+00
6.114559e-01 1.328085e-03 0.000000e+00
5.062779e-01 9.726247e-04 0.000000e+00
4.259060e-01 6.808152e-04 0.000000e+00
3.572625e-01 4.901888e-04 0.000000e+00
3.000963e-01 3.440373e-04 0.000000e+00
2.509587e-01 2.442571e-04 0.000000e+00
2.079885e-01 1.724260e-04 0.000000e+00
1.702664e-01 1.214806e-04 0.000000e+00
1.362594e-01 8.759886e-05 0.000000e+00
1.054639e-01 6.318444e-05 0.000000e+00
7.694587e-02 4.977904e-05 0.000000e+00
5.020212e-02 4.117985e-05 0.000000e+00
2.473387e-02 4.216993e-05 0.000000e+00
0.000000e+00 5.109764e-05 0.000000e+00
0.000000e+00 -4.278250e-04 0.000000e+00
8.388308e-02 -3.931948e-04 0.000000e+00
1.624198e-01 -3.954219e-04 0.000000e+00
2.430980e-01 -4.288416e-04 0.000000e+00
3.278097e-01 -4.852026e-04 0.000000e+00
4.176673e-01 -5.637193e-04 0.000000e+00
5.152671e-01 -6.709371e-04 0.000000e+00
6.216017e-01 -8.013029e-04 0.000000e+00
7.365329e-01 -9.617713e-04 0.000000e+00
8.594505e-01 -1.108130e-03 0.000000e+00
9.841727e-01 -1.255358e-03 0.000000e+00
1.108641e+00 -1.384916e-03 0.000000e+00
1.228168e+00 -1.498286e-03 0.000000e+00
1.340110e+00 -1.618965e-03 0.000000e+00
1.444376e+00 -1.740834e-03 0.000000e+00
1.540267e+00 -1.848385e-03 0.000000e+00
1.628088e+00 -1.985712e-03 0.000000e+00
1.710666e+00 -2.142646e-03 0.000000e+00
1.789863e+00 -2.142328e-03 0.000000e+00
1.858875e+00 -2.296789e-03 0.000000e+00
1.925108e+00 -1.978138e-03 0.000000e+00
1.961471e+00 -3.017401e-04 0.000000e+00
1.606946e+00 2.646598e-03 0.000000e+00
1.398716e+00 4.480365e-03 0.000000e+00
1.093034e+00 3.655676e-03 0.000000e+00
9.094604e-01 2.577063e-03 0.000000e+00
7.316292e-01 1.953611e-03 0.000000e+00
6.109075e-01 1.363623e-03 0.000000e+00
5.059174e-01 9.891899e-04 0.000000e+00
4.256312e-01 6.800961e-04 0.000000e+00
3.570819e-01 4.753568e-04 0.000000e+00
2.999603e-01 3.172488e-04 0.000000e+00
2.508683e-01 2.073257e-04 0.000000e+00
2.079220e-01 1.268031e-04 0.000000e+00
1.702219e-01 6.796971e-05 0.000000e+00
1.362281e-01 2.681398e-05 0.000000e+00
1.054433e-01 -4.670587e-06 0.000000e+00
7.693289e-02 -2.589483e-05 0.000000e+00
5.019475e-02 -4.295968e-05 0.000000e+00
2.473105e-02 -5.520885e-05 0.000000e+00
0.000000e+00 -7.029037e-05 0.000000e+00
0.000000e+00 -2.176936e-04 0.000000e+00
8.385985e-02 -2.635130e-04 0.000000e+00
1.623779e-01 -3.045452e-04 0.000000e+00
2.430348e-01 -3.537836e-04 0.000000e+00
3.277237e-01 -4.204389e-04 0.000000e+00
4.175542e-01 -5.042355e-04 0.000000e+00
5.151250e-01 -6.144477e-04 0.000000e+00
6.214247e-01 -7.458474e-04 0.000000e+00
7.363182e-01 -9.055678e-04 0.000000e+00
8.591891e-01 -1.050417e-03 0.000000e+00
9.838555e-01 -1.194981e-03 0.000000e+00
1.108260e+00 -1.321588e-03 0.000000e+00
1.227712e+00 -1.431570e-03 0.000000e+00
1.339573e+00 -1.548256e-03 0.000000e+00
1.443753e+00 -1.665517e-03 0.000000e+00
1.539552e+00 -1.768544e-03 0.000000e+00
1.627287e+00 -1.899980e-03 0.000000e+00
1.709782e+00 -2.051249e-03 0.000000e+00
1.788907e+00 -2.049370e-03 0.000000e+00
1.857822e+00 -2.200797e-03 0.000000e+00
1.924072e+00 -1.896734e-03 0.000000e+00
1.959948e+00 -2.824098e-04 0.000000e+00
1.604786e+00 2.553827e-03 0.000000e+00
1.396977e+00 4.321792e-03 0.000000e+00
1.091701e+00 3.535922e-03 0.000000e+00
9.084151e-01 2.493453e-03 0.000000e+00
7.309159e-01 1.893010e-03 0.000000e+00
6.103595e-01 1.326824e-03 0.000000e+00
5.055573e-01 9.718931e-04 0.000000e+00
4.253567e-01 6.804095e-04 0.000000e+00
3.569014e-01 4.899206e-04 0.000000e+00
2.998243e-01 3.439257e-04 0.000000e+00
2.507779e-01 2.441653e-04 0.000000e+00
2.078555e-01 1.724008e-04 0.000000e+00
1.701774e-01 1.214501e-04 0.000000e+00
1.361968e-01 8.759536e-05 0.000000e+00
1.054228e-01 6.317486e-05 0.000000e+00
7.691992e-02 4.977989e-05 0.000000e+00
5.018739e-02 4.117675e-05 0.000000e+00
2.472824e-02 4.217051e-05 0.000000e+00
0.000000e+00 5.109634e-05 0.000000e+00
0.000000e+00 -3.733632e-04 0.000000e+00
8.385202e-02 -3.412637e-04 0.000000e+00
1.623519e-01 -3.411169e-04 0.000000e+00
2.429889e-01 -3.683369e-04 0.000000e+00
3.276537e-01 -4.148261e-04 0.000000e+00
4.174560e-01 -4.805648e-04 0.000000e+00
5.149953e-01 -5.712846e-04 0.000000e+00
6.212571e-01 -6.829593e-04 0.000000e+00
7.361083e-01 -8.211104e-04 0.000000e+00
8.589276e-01 -9.461214e-04 0.000000e+00
9.835332e-01 -1.070765e-03 0.000000e+00
1.107870e+00 -1.179350e-03 0.000000e+00
1.227243e+00 -1.272433e-03 0.000000e+00
1.339021e+00 -1.371887e-03 0.000000e+00
1.443115e+00 -1.471490e-03 0.000000e+00
1.538825e+00 -1.558366e-03 0.000000e+00
1.626473e+00 -1.670030e-03 0.000000e+00
1.708888e+00 -1.802054e-03 0.000000e+00
1.787942e+00 -1.796205e-03 0.000000e+00
1.856759e+00 -1.932847e-03 0.000000e+00
1.923013e+00 -1.678359e-03 0.000000e+00
1.958397e+00 -2.526676e-04 0.000000e+00
1.602624e+00 2.213604e-03 0.000000e+00
1.395225e+00 3.791226e-03 0.000000e+00
1.090380e+00 3.105785e-03 0.000000e+00
9.073990e-01 2.165584e-03 0.000000e+00
7.302344e-01 1.621937e-03 0.000000e+00
6.098420e-01 1.112864e-03 0.000000e+00
5.052187e-01 7.972483e-04 0.000000e+00
4.250972e-01 5.382079e-04 0.000000e+00
3.567287e-01 3.698792e-04 0.000000e+00
2.996915e-01 2.398076e-04 0.000000e+00
2.506868e-01 1.503731e-04 0.000000e+00
2.077857e-01 8.465678e-05 0.000000e+00
1.701276e-01 3.688299e-05 0.000000e+00
1.361588e-01 3.340808e-06 0.000000e+00
1.053948e-01 -2.227711e-05 0.000000e+00
7.689891e-02 -3.970184e-05 0.000000e+00
5.017285e-02 -5.367563e-05 0.000000e+00
2.471936e-02 -6.416637e-05 0.000000e+00
0.000000e+00 -7.762317e-05 0.000000e+00
0.000000e+00 -1.241882e-04 0.000000e+00
8.381642e-02 -1.595124e-04 0.000000e+00
1.623034e-01 -1.891957e-04 0.000000e+00
2.429236e-01 -2.217893e-04 0.000000e+00
3.275726e-01 -2.665142e-04 0.000000e+00
4.173543e-01 -3.230581e-04 0.000000e+00
5.148707e-01 -3.989541e-04 0.000000e+00
6.211030e-01 -4.913080e-04 0.000000e+00
7.359193e-01 -6.046501e-04 0.000000e+00
8.586935e-01 -7.057687e-04 0.000000e+00
9.832444e-01 -8.051162e-04 0.000000e+00
1.107519e+00 -8.905473e-04 0.000000e+00
1.226822e+00 -9.622702e-04 0.000000e+00
1.338526e+00 -1.039070e-03 0.000000e+00
1.442544e+00 -1.115173e-03 0.000000e+00
1.538176e+00 -1.181003e-03 0.000000e+00
1.625751e+00 -1.265787e-03 0.000000e+00
1.708095e+00 -1.368911e-03 0.000000e+00
1.787086e+00 -1.365264e-03 0.000000e+00
1.855814e+00 -1.473360e-03 0.000000e+00
1.922064e+00 -1.303886e-03 0.000000e+00
1.956993e+00 -1.899136e-04 0.000000e+00
1.600665e+00 1.692653e-03 0.000000e+00
1.393633e+00 2.942378e-03 0.000000e+00
1.089207e+00 2.427280e-03 0.000000e+00
9.065180e-01 1.682224e-03 0.000000e+00
7.296604e-01 1.247878e-03 0.000000e+00
6.094197e-01 8.525446e-04 0.000000e+00
5.049558e-01 6.160808e-04 0.000000e+00
4.249038e-01 4.247427e-04 0.000000e+00
3.566091e-01 3.042375e-04 0.000000e+00
2.996049e-01 2.118291e-04 0.000000e+00
2.506342e-01 1.501397e-04 0.000000e+00
2.077500e-01 1.055683e-04 0.000000e+00
1.701077e-01 7.436650e-05 0.000000e+00
1.361481e-01 5.363600e-05 0.000000e+00
1.053915e-01 3.878728e-05 0.000000e+00
7.690075e-02 3.087670e-05 0.000000e+00
5.017705e-02 2.571502e-05 0.000000e+00
2.472525e-02 2.723422e-05 0.000000e+00
0.000000e+00 3.478169e-05 0.000000e+00
0.000000e+00 -2.231861e-04 0.000000e+00
8.384396e-02 -2.020735e-04 0.000000e+00
1.623190e-01 -1.970520e-04 0.000000e+00
2.429285e-01 -2.069771e-04 0.000000e+00
3.275597e-01 -2.252256e-04 0.000000e+00
4.173201e-01 -2.529200e-04 0.000000e+00
5.148085e-01 -2.929056e-04 0.000000e+00
6.210020e-01 -3.436072e-04 0.000000e+00
7.357673e-01 -4.072964e-04 0.000000e+00
8.584773e-01 -4.626372e-04 0.000000e+00
9.829541e-01 -5.169174e-04 0.000000e+00
1.107150e+00 -5.628045e-04 0.000000e+00
1.226368e+00 -6.005986e-04 0.000000e+00
1.337984e+00 -6.423114e-04 0.000000e+00
1.441916e+00 -6.835741e-04 0.000000e+00
1.537459e+00 -7.191260e-04 0.000000e+00
1.624947e+00 -7.660718e-04 0.000000e+00
1.707207e+00 -8.247094e-04 0.000000e+00
1.786114e+00 -8.250729e-04 0.000000e+00
1.854719e+00 -8.854950e-04 0.000000e+00
1.920892e+00 -8.108271e-04 0.000000e+00
1.955349e+00 -1.620381e-04 0.000000e+00
1.598559e+00 9.152052e-04 0.000000e+00
1.391960e+00 1.638353e-03 0.000000e+00
1.088045e+00 1.347949e-03 0.000000e+00
9.057384e-01 9.039688e-04 0.000000e+00
7.291850e-01 6.312972e-04 0.000000e+00
6.090863e-01 3.948829e-04 0.000000e+00
5.047433e-01 2.578963e-04 0.000000e+00
4.247414e-01 1.499730e-04 0.000000e+00
3.564975e-01 8.317752e-05 0.000000e+00
2.995154e-01 3.165943e-05 0.000000e+00
2.505681e-01 -2.907202e-06 0.000000e+00
2.076955e-01 -2.853908e-05 0.000000e+00
1.700645e-01 -4.696813e-05 0.000000e+00
1.361113e-01 -6.008779e-05 0.000000e+00
1.053608e-01 -7.004312e-05 0.000000e+00
7.687387e-02 -7.713807e-05 0.000000e+00
5.015583e-02 -8.271431e-05 0.000000e+00
2.470833e-02 -8.798383e-05 0.000000e+00
0.000000e+00 -9.586973e-05 0.000000e+00
0.000000e+00 0.000000e+00 0.000000e+00
8.378229e-02 0.000000e+00 0.000000e+00
1.622550e-01 0.000000e+00 0.000000e+00
2.428567e-01 0.000000e+00 0.000000e+00
3.274844e-01 0.000000e+00 0.000000e+00
4.172353e-01 0.000000e+00 0.000000e+00
5.147109e-01 0.000000e+00 0.000000e+00
6.208827e-01 0.000000e+00 0.000000e+00
7.356184e-01 0.000000e+00 0.000000e+00
8.582895e-01 0.000000e+00 0.000000e+00
9.827213e-01 0.000000e+00 0.000000e+00
1.106869e+00 0.000000e+00 0.000000e+00
1.226035e+00 0.000000e+00 0.000000e+00
1.337598e+00 0.000000e+00 0.000000e+00
1.441478e+00 0.000000e+00 0.000000e+00
1.536967e+00 0.000000e+00 0.000000e+00
1.624402e+00 0.000000e+00 0.000000e+00
1.706609e+00 0.000000e+00 0.000000e+00
1.785458e+00 0.000000e+00 0.000000e+00
1.853980e+00 0.000000e+00 0.000000e+00
1.920069e+00 0.000000e+00 0.000000e+00
1.954257e+00 0.000000e+00 0.000000e+00
1.597274e+00 0.000000e+00 0.000000e+00
1.390983e+00 0.000000e+00 0.000000e+00
1.087418e+00 0.000000e+00 0.000000e+00
9.053912e-01 0.000000e+00 0.000000e+00
7.290248e-01 0.000000e+00 0.000000e+00
6.090104e-01 0.000000e+00 0.000000e+00
5.047204e-01 0.000000e+00 0.000000e+00
4.247369e-01 0.000000e+00 0.000000e+00
3.565089e-01 0.000000e+00 0.000000e+00
2.995317e-01 0.000000e+00 0.000000e+00
2.505898e-01 0.000000e+00 0.000000e+00
2.077189e-01 0.000000e+00 0.000000e+00
1.700897e-01 0.000000e+00 0.000000e+00
1.361372e-01 0.000000e+00 0.000000e+00
1.053865e-01 0.000000e+00 0.000000e+00
7.689994e-02 0.000000e+00 0.000000e+00
5.017865e-02 0.000000e+00 0.000000e+00
2.472940e-02 0.000000e+00 0.000000e+00
0.000000e+00 0.000000e+00 0.000000e+00
0.000000e+00 0.000000e+00 -9.105702e-02
7.619262e-02 0.000000e+00 -8.823071e-02
1.543726e-01 0.000000e+00 -8.737642e-02
2.337482e-01 0.000000e+00 -9.053916e-02
3.170840e-01 0.000000e+00 -9.487015e-02
4.044281e-01 0.000000e+00 -1.004284e-01
4.986775e-01 0.000000e+00 -1.087765e-01
6.005059e-01 0.000000e+00 -1.168836e-01
7.108475e-01 0.000000e+00 -1.267345e-01
8.299257e-01 0.000000e+00 -1.317324e-01
9.528854e-01 0.000000e+00 -1.335270e-01
1.077957e+00 0.000000e+00 -1.321901e-01
1.200080e+00 0.000000e+00 -1.261934e-01
1.316266e+00 0.000000e+00 -1.189750e-01
1.425289e+00 0.000000e+00 -1.112241e-01
1.524915e+00 0.000000e+00 -1.015223e-01
1.614283e+00 0.000000e+00 -9.312204e-02
1.694263e+00 0.000000e+00 -8.661145e-02
1.764875e+00 0.000000e+00 -7.398748e-02
1.817210e+00 0.000000e+00 -5.637355e-02
1.865728e+00 0.000000e+00 1.072081e-02
1.861429e+00 0.000000e+00 1.159461e-01
1.500007e+00 0.000000e+00 2.601124e-01
1.304807e+00 0.000000e+00 2.651571e-01
1.034150e+00 0.000000e+00 2.159282e-01
8.713220e-01 0.000000e+00 1.673238e-01
7.129425e-01 0.000000e+00 1.317662e-01
6.010978e-01 0.000000e+00 1.014660e-01
5.025369e-01 0.000000e+00 8.084749e-02
4.247061e-01 0.000000e+00 6.485685e-02
3.579639e-01 0.000000e+00 5.308212e-02
3.015442e-01 0.000000e+00 4.400964e-02
2.530056e-01 0.000000e+00 3.681511e-02
2.102935e-01 0.000000e+00 3.127605e-02
1.727763e-01 0.000000e+00 2.674505e-02
1.388035e-01 0.000000e+00 2.330819e-02
1.080224e-01 0.000000e+00 2.053697e-02
7.929407e-02 0.000000e+00 1.853935e-02
5.225407e-02 0.000000e+00 1.706201e-02
2.595656e-02 0.000000e+00 1.615894e-02
0.000000e+00 0.000000e+00 1.598882e-02
0.000000e+00 -1.943113e-04 -9.112797e-02
7.615732e-02 -1.951763e-04 -8.828031e-02
1.543181e-01 -1.970534e-04 -8.741372e-02
2.336836e-01 -2.072455e-04 -9.056425e-02
3.170119e-01 -2.263203e-04 -9.489013e-02
4.043457e-01 -2.546070e-04 -1.004446e-01
4.985804e-01 -2.953765e-04 -1.087916e-01
6.003853e-01 -3.483590e-04 -1.168984e-01
7.106949e-01 -4.124921e-04 -1.267528e-01
8.297329e-01 -4.663093e-04 -1.317506e-01
9.526478e-01 -5.161299e-04 -1.335499e-01
1.077673e+00 -5.519684e-04 -1.322153e-01