# vtk DataFile Version 3.0
vtk output
ASCII
DATASET UNSTRUCTURED_GRID
POINTS 11275 float
0.000000e+00 0.000000e+00 0.000000e+00
1.460000e-02 0.000000e+00 0.000000e+00
2.920000e-02 0.000000e+00 0.000000e+00
4.380000e-02 0.000000e+00 0.000000e+00
5.840000e-02 0.000000e+00 0.000000e+00
7.300000e-02 0.000000e+00 0.000000e+00
8.760000e-02 0.000000e+00 0.000000e+00
1.022000e-01 0.000000e+00 0.000000e+00
1.168000e-01 0.000000e+00 0.000000e+00
1.314000e-01 0.000000e+00 0.000000e+00
1.460000e-01 0.000000e+00 0.000000e+00
1.606000e-01 0.000000e+00 0.000000e+00
1.752000e-01 0.000000e+00 0.000000e+00
1.898000e-01 0.000000e+00 0.000000e+00
2.044000e-01 0.000000e+00 0.000000e+00
2.190000e-01 0.000000e+00 0.000000e+00
2.336000e-01 0.000000e+00 0.000000e+00
2.482000e-01 0.000000e+00 0.000000e+00
2.628000e-01 0.000000e+00 0.000000e+00
2.774000e-01 0.000000e+00 0.000000e+00
2.920000e-01 0.000000e+00 0.000000e+00
3.066000e-01 0.000000e+00 0.000000e+00
3.212000e-01 0.000000e+00 0.000000e+00
3.358000e-01 0.000000e+00 0.000000e+00
3.504000e-01 0.000000e+00 0.000000e+00
3.650000e-01 0.000000e+00 0.000000e+00
3.796000e-01 0.000000e+00 0.000000e+00
3.942000e-01 0.000000e+00 0.000000e+00
4.088000e-01 0.000000e+00 0.000000e+00
4.234000e-01 0.000000e+00 0.000000e+00
4.380000e-01 0.000000e+00 0.000000e+00
4.526000e-01 0.000000e+00 0.000000e+00
4.672000e-01 0.000000e+00 0.000000e+00
4.818000e-01 0.000000e+00 0.000000e+00
4.964000e-01 0.000000e+00 0.000000e+00
5.110000e-01 0.000000e+00 0.000000e+00
5.256000e-01 0.000000e+00 0.000000e+00
5.402000e-01 0.000000e+00 0.000000e+00
5.548000e-01 0.000000e+00 0.000000e+00
5.694000e-01 0.000000e+00 0.000000e+00
5.840000e-01 0.000000e+00 0.000000e+00
0.000000e+00 1.460000e-02 0.000000e+00
1.460000e-02 1.460000e-02 0.000000e+00
2.920000e-02 1.460000e-02 0.000000e+00
4.380000e-02 1.460000e-02 0.000000e+00
5.840000e-02 1.460000e-02 0.000000e+00
7.300000e-02 1.460000e-02 0.000000e+00
8.760000e-02 1.460000e-02 0.000000e+00
1.022000e-01 1.460000e-02 0.000000e+00
1.168000e-01 1.460000e-02 0.000000e+00
1.314000e-01 1.460000e-02 0.000000e+00
1.460000e-01 1.460000e-02 0.000000e+00
1.606000e-01 1.460000e-02 0.000000e+00
1.752000e-01 1.460000e-02 0.000000e+00
1.898000e-01 1.460000e-02 0.000000e+00
2.044000e-01 1.460000e-02 0.000000e+00
2.190000e-01 1.460000e-02 0.000000e+00
2.336000e-01 1.460000e-02 0.000000e+00
2.482000e-01 1.460000e-02 0.000000e+00
2.628000e-01 1.460000e-02 0.000000e+00
2.774000e-01 1.460000e-02 0.000000e+00
2.920000e-01 1.460000e-02 0.000000e+00
3.066000e-01 1.460000e-02 0.000000e+00
3.212000e-01 1.460000e-02 0.000000e+00
3.358000e-01 1.460000e-02 0.000000e+00
3.504000e-01 1.460000e-02 0.000000e+00
3.650000e-01 1.460000e-02 0.000000e+00
3.796000e-01 1.460000e-02 0.000000e+00
3.942000e-01 1.460000e-02 0.000000e+00
4.088000e-01 1.460000e-02 0.000000e+00
4.234000e-01 1.460000e-02 0.000000e+00
4.380000e-01 1.460000e-02 0.000000e+00
4.526000e-01 1.460000e-02 0.000000e+00
4.672000e-01 1.460000e-02 0.000000e+00
4.818000e-01 1.460000e-02 0.000000e+00
4.964000e-01 1.460000e-02 0.000000e+00
5.110000e-01 1.460000e-02 0.000000e+00
5.256000e-01 1.460000e-02 0.000000e+00
5.402000e-01 1.460000e-02 0.000000e+00
5.548000e-01 1.460000e-02 0.000000e+00
5.694000e-01 1.460000e-02 0.000000e+00
5.840000e-01 1.460000e-02 0.000000e+00
0.000000e+00 2.920000e-02 0.000000e+00
1.460000e-02 2.920000e-02 0.000000e+00
2.920000e-02 2.920000e-02 0.000000e+00
4.380000e-02 2.920000e-02 0.000000e+00
5.840000e-02 2.920000e-02 0.000000e+00
7.300000e-02 2.920000e-02 0.000000e+00
8.760000e-02 2.920000e-02 0.000000e+00
1.022000e-01 2.920000e-02 0.000000e+00
1.168000e-01 2.920000e-02 0.000000e+00
1.314000e-01 2.920000e-02 0.000000e+00
1.460000e-01 2.920000e-02 0.000000e+00
1.606000e-01 2.920000e-02 0.000000e+00
1.752000e-01 2.920000e-02 0.000000e+00
1.898000e-01 2.920000e-02 0.000000e+00
2.044000e-01 2.920000e-02 0.000000e+00
2.190000e-01 2.920000e-02 0.000000e+00
2.336000e-01 2.920000e-02 0.000000e+00
2.482000e-01 2.920000e-02 0.000000e+00
2.628000e-01 2.920000e-02 0.000000e+00
2.774000e-01 2.920000e-02 0.000000e+00
2.920000e-01 2.920000e-02 0.000000e+00
3.066000e-01 2.920000e-02 0.000000e+00
3.212000e-01 2.920000e-02 0.000000e+00
3.358000e-01 2.920000e-02 0.000000e+00
3.504000e-01 2.920000e-02 0.000000e+00
3.650000e-01 2.920000e-02 0.000000e+00
3.796000e-01 2.920000e-02 0.000000e+00
3.942000e-01 2.920000e-02 0.000000e+00
4.088000e-01 2.920000e-02 0.000000e+00
4.234000e-01 2.920000e-02 0.000000e+00
4.380000e-01 2.920000e-02 0.000000e+00
4.526000e-01 2.920000e-02 0.000000e+00
4.672000e-01 2.920000e-02 0.000000e+00
4.818000e-01 2.920000e-02 0.000000e+00
4.964000e-01 2.920000e-02 0.000000e+00
5.110000e-01 2.920000e-02 0.000000e+00
5.256000e-01 2.920000e-02 0.000000e+00
5.402000e-01 2.920000e-02 0.000000e+00
5.548000e-01 2.920000e-02 0.000000e+00
5.694000e-01 2.920000e-02 0.000000e+00
5.840000e-01 2.920000e-02 0.000000e+00
0.000000e+00 4.380000e-02 0.000000e+00
1.460000e-02 4.380000e-02 0.000000e+00
2.920000e-02 4.380000e-02 0.000000e+00
4.380000e-02 4.380000e-02 0.000000e+00
5.840000e-02 4.380000e-02 0.000000e+00
7.300000e-02 4.380000e-02 0.000000e+00
8.760000e-02 4.380000e-02 0.000000e+00
1.022000e-01 4.380000e-02 0.000000e+00
1.168000e-01 4.380000e-02 0.000000e+00
1.314000e-01 4.380000e-02 0.000000e+00
1.460000e-01 4.380000e-02 0.000000e+00
1.606000e-01 4.380000e-02 0.000000e+00
1.752000e-01 4.380000e-02 0.000000e+00
1.898000e-01 4.380000e-02 0.000000e+00
2.044000e-01 4.380000e-02 0.000000e+00
2.190000e-01 4.380000e-02 0.000000e+00
2.336000e-01 4.380000e-02 0.000000e+00
2.482000e-01 4.380000e-02 0.000000e+00
2.628000e-01 4.380000e-02 0.000000e+00
2.774000e-01 4.380000e-02 0.000000e+00
2.920000e-01 4.380000e-02 0.000000e+00
3.066000e-01 4.380000e-02 0.000000e+00
3.212000e-01 4.380000e-02 0.000000e+00
3.358000e-01 4.380000e-02 0.000000e+00
3.504000e-01 4.380000e-02 0.000000e+00
3.650000e-01 4.380000e-02 0.000000e+00
3.796000e-01 4.380000e-02 0.000000e+00
3.942000e-01 4.380000e-02 0.000000e+00
4.088000e-01 4.380000e-02 0.000000e+00
4.234000e-01 4.380000e-02 0.000000e+00
4.380000e-01 4.380000e-02 0.000000e+00
4.526000e-01 4.380000e-02 0.000000e+00
4.672000e-01 4.380000e-02 0.000000e+00
4.818000e-01 4.380000e-02 0.000000e+00
4.964000e-01 4.380000e-02 0.000000e+00
5.110000e-01 4.380000e-02 0.000000e+00
5.256000e-01 4.380000e-02 0.000000e+00
5.402000e-01 4.380000e-02 0.000000e+00
5.548000e-01 4.380000e-02 0.000000e+00
5.694000e-01 4.380000e-02 0.000000e+00
5.840000e-01 4.380000e-02 0.000000e+00
0.000000e+00 5.840000e-02 0.000000e+00
1.460000e-02 5.840000e-02 0.000000e+00
2.920000e-02 5.840000e-02 0.000000e+00
4.380000e-02 5.840000e-02 0.000000e+00
5.840000e-02 5.840000e-02 0.000000e+00
7.300000e-02 5.840000e-02 0.000000e+00
8.760000e-02 5.840000e-02 0.000000e+00
1.022000e-01 5.840000e-02 0.000000e+00
1.168000e-01 5.840000e-02 0.000000e+00
1.314000e-01 5.840000e-02 0.000000e+00
1.460000e-01 5.840000e-02 0.000000e+00
1.606000e-01 5.840000e-02 0.000000e+00
1.752000e-01 5.840000e-02 0.000000e+00
1.898000e-01 5.840000e-02 0.000000e+00
2.044000e-01 5.840000e-02 0.000000e+00
2.190000e-01 5.840000e-02 0.000000e+00
2.336000e-01 5.840000e-02 0.000000e+00
2.482000e-01 5.840000e-02 0.000000e+00
2.628000e-01 5.840000e-02 0.000000e+00
2.774000e-01 5.840000e-02 0.000000e+00
2.920000e-01 5.840000e-02 0.000000e+00
3.066000e-01 5.840000e-02 0.000000e+00
3.212000e-01 5.840000e-02 0.000000e+00
3.358000e-01 5.840000e-02 0.000000e+00
3.504000e-01 5.840000e-02 0.000000e+00
3.650000e-01 5.840000e-02 0.000000e+00
3.796000e-01 5.840000e-02 0.000000e+00
3.942000e-01 5.840000e-02 0.000000e+00
4.088000e-01 5.840000e-02 0.000000e+00
4.234000e-01 5.840000e-02 0.000000e+00
4.380000e-01 5.840000e-02 0.000000e+00
4.526000e-01 5.840000e-02 0.000000e+00
4.672000e-01 5.840000e-02 0.000000e+00
4.818000e-01 5.840000e-02 0.000000e+00
4.964000e-01 5.840000e-02 0.000000e+00
5.110000e-01 5.840000e-02 0.000000e+00
5.256000e-01 5.840000e-02 0.000000e+00
5.402000e-01 5.840000e-02 0.000000e+00
5.548000e-01 5.840000e-02 0.000000e+00
5.694000e-01 5.840000e-02 0.000000e+00
5.840000e-01 5.840000e-02 0.000000e+00
0.000000e+00 7.300000e-02 0.000000e+00
1.460000e-02 7.300000e-02 0.000000e+00
2.920000e-02 7.300000e-02 0.000000e+00
4.380000e-02 7.300000e-02 0.000000e+00
5.840000e-02 7.300000e-02 0.000000e+00
7.300000e-02 7.300000e-02 0.000000e+00
8.760000e-02 7.300000e-02 0.000000e+00
1.022000e-01 7.300000e-02 0.000000e+00
1.168000e-01 7.300000e-02 0.000000e+00
1.314000e-01 7.300000e-02 0.000000e+00
1.460000e-01 7.300000e-02 0.000000e+00
1.606000e-01 7.300000e-02 0.000000e+00
1.752000e-01 7.300000e-02 0.000000e+00
1.898000e-01 7.300000e-02 0.000000e+00
2.044000e-01 7.300000e-02 0.000000e+00
2.190000e-01 7.300000e-02 0.000000e+00
2.336000e-01 7.300000e-02 0.000000e+00
2.482000e-01 7.300000e-02 0.000000e+00
2.628000e-01 7.300000e-02 0.000000e+00
2.774000e-01 7.300000e-02 0.000000e+00
2.920000e-01 7.300000e-02 0.000000e+00
3.066000e-01 7.300000e-02 0.000000e+00
3.212000e-01 7.300000e-02 0.000000e+00
3.358000e-01 7.300000e-02 0.000000e+00
3.504000e-01 7.300000e-02 0.000000e+00
3.650000e-01 7.300000e-02 0.000000e+00
3.796000e-01 7.300000e-02 0.000000e+00
3.942000e-01 7.300000e-02 0.000000e+00
4.088000e-01 7.300000e-02 0.000000e+00
4.234000e-01 7.300000e-02 0.000000e+00
4.380000e-01 7.300000e-02 0.000000e+00
4.526000e-01 7.300000e-02 0.000000e+00
4.672000e-01 7.300000e-02 0.000000e+00
4.818000e-01 7.300000e-02 0.000000e+00
4.964000e-01 7.300000e-02 0.000000e+00
5.110000e-01 7.300000e-02 0.000000e+00
5.256000e-01 7.300000e-02 0.000000e+00
5.402000e-01 7.300000e-02 0.000000e+00
5.548000e-01 7.300000e-02 0.000000e+00
5.694000e-01 7.300000e-02 0.000000e+00
5.840000e-01 7.300000e-02 0.000000e+00
0.000000e+00 8.760000e-02 0.000000e+00
1.460000e-02 8.760000e-02 0.000000e+00
2.920000e-02 8.760000e-02 0.000000e+00
4.380000e-02 8.760000e-02 0.000000e+00
5.840000e-02 8.760000e-02 0.000000e+00
7.300000e-02 8.760000e-02 0.000000e+00
8.760000e-02 8.760000e-02 0.000000e+00
1.022000e-01 8.760000e-02 0.000000e+00
[...]
POINT_DATA 11275
VECTORS Velocity float
0.000000e+00 0.000000e+00 0.000000e+00
-6.025985e-01 0.000000e+00 0.000000e+00
-6.886322e-01 0.000000e+00 0.000000e+00
-1.092256e+00 0.000000e+00 0.000000e+00
-8.830158e-01 0.000000e+00 0.000000e+00
-1.521707e+00 0.000000e+00 0.000000e+00
-2.446421e+00 0.000000e+00 0.000000e+00
-3.094299e+00 0.000000e+00 0.000000e+00
-2.844617e+00 0.000000e+00 0.000000e+00
-3.081884e+00 0.000000e+00 0.000000e+00
-2.812697e+00 0.000000e+00 0.000000e+00
-3.370923e+00 0.000000e+00 0.000000e+00
-2.748213e+00 0.000000e+00 0.000000e+00
-2.654060e+00 0.000000e+00 0.000000e+00
-2.258889e+00 0.000000e+00 0.000000e+00
-2.463577e+00 0.000000e+00 0.000000e+00
-1.040736e+00 0.000000e+00 0.000000e+00
-1.416153e+00 0.000000e+00 0.000000e+00
-1.224080e+00 0.000000e+00 0.000000e+00
-1.449012e+00 0.000000e+00 0.000000e+00
-2.968867e+00 0.000000e+00 0.000000e+00
-3.752763e+00 0.000000e+00 0.000000e+00
-4.060294e+00 0.000000e+00 0.000000e+00
-3.928436e+00 0.000000e+00 0.000000e+00
-2.873885e+00 0.000000e+00 0.000000e+00
-2.237123e+00 0.000000e+00 0.000000e+00
-1.811868e+00 0.000000e+00 0.000000e+00
-1.122924e+00 0.000000e+00 0.000000e+00
-1.490901e-01 0.000000e+00 0.000000e+00
1.237884e+00 0.000000e+00 0.000000e+00
2.455221e+00 0.000000e+00 0.000000e+00
2.996047e+00 0.000000e+00 0.000000e+00
3.065881e+00 0.000000e+00 0.000000e+00
2.860302e+00 0.000000e+00 0.000000e+00
2.440151e+00 0.000000e+00 0.000000e+00
1.807375e+00 0.000000e+00 0.000000e+00
9.019595e-01 0.000000e+00 0.000000e+00
5.678896e-01 0.000000e+00 0.000000e+00
3.125614e-01 0.000000e+00 0.000000e+00
2.185452e-01 0.000000e+00 0.000000e+00
0.000000e+00 0.000000e+00 0.000000e+00
0.000000e+00 3.705502e-02 0.000000e+00
-6.288870e-01 -8.952267e-03 0.000000e+00
-9.964228e-01 -3.889700e-02 0.000000e+00
-9.938648e-01 -3.125838e-01 0.000000e+00
-9.779140e-01 -9.944961e-02 0.000000e+00
-1.358768e+00 -2.793545e-01 0.000000e+00
-1.384834e+00 -4.586425e-01 0.000000e+00
-1.900633e+00 -4.949445e-01 0.000000e+00
-2.064138e+00 -6.473078e-01 0.000000e+00
-1.098666e+00 -1.028779e-01 0.000000e+00
-1.617401e+00 -1.384213e+00 0.000000e+00
-6.591396e-01 -3.652032e-01 0.000000e+00
-5.707184e-01 -2.013235e+00 0.000000e+00
-3.998285e-01 -1.816563e-01 0.000000e+00
8.623968e-02 -2.016836e+00 0.000000e+00
-6.828954e-02 1.498044e-01 0.000000e+00
6.784585e-01 -3.627930e+00 0.000000e+00
7.075773e-01 7.070488e-01 0.000000e+00
1.060417e+00 -2.556313e+00 0.000000e+00
1.314941e+00 -6.683640e-01 0.000000e+00
1.086656e+00 -6.406390e-01 0.000000e+00
-1.690824e-01 -5.669849e-01 0.000000e+00
-8.486598e-01 -1.495743e-01 0.000000e+00
-7.587105e-01 -5.992717e-01 0.000000e+00
-9.011030e-01 -3.255735e-01 0.000000e+00
-8.095849e-01 -2.365499e-01 0.000000e+00
-4.173947e-01 -2.623556e-01 0.000000e+00
-3.039136e-01 -5.948811e-01 0.000000e+00
-2.839062e-01 -1.371909e+00 0.000000e+00
-1.075096e-01 -2.036308e+00 0.000000e+00
4.311489e-01 -1.194525e+00 0.000000e+00
1.011063e+00 -3.360108e-01 0.000000e+00
1.426797e+00 -6.756837e-02 0.000000e+00
1.711360e+00 4.692831e-02 0.000000e+00
1.846530e+00 1.331704e-01 0.000000e+00
1.607511e+00 1.546477e-01 0.000000e+00
9.375082e-01 -2.229693e-02 0.000000e+00
6.147370e-01 3.030164e-03 0.000000e+00
4.080236e-01 -1.607005e-02 0.000000e+00
2.960739e-01 -1.281201e-02 0.000000e+00
0.000000e+00 -1.004924e-02 0.000000e+00
0.000000e+00 -1.456821e-01 0.000000e+00
-6.149805e-01 1.331482e-01 0.000000e+00
-1.028128e+00 9.732652e-02 0.000000e+00
-9.285425e-01 -3.465357e-01 0.000000e+00
-1.376832e+00 -7.460730e-01 0.000000e+00
-1.774658e+00 -3.933640e-01 0.000000e+00
-1.672256e+00 -7.895690e-01 0.000000e+00
2.154609e-01 -1.025466e+00 0.000000e+00
-1.579819e+00 -1.176660e+00 0.000000e+00
4.342081e-01 3.638639e-01 0.000000e+00
-1.439101e+00 -1.702115e+00 0.000000e+00
5.126015e-02 1.270876e-01 0.000000e+00
8.749949e-02 -2.633806e+00 0.000000e+00
8.754473e-02 -7.137159e-02 0.000000e+00
-3.692916e-02 -3.215332e+00 0.000000e+00
1.882969e-01 6.458517e-01 0.000000e+00
2.391366e-01 -4.380633e+00 0.000000e+00
3.624889e-01 5.956141e-01 0.000000e+00
3.779968e-01 -2.727546e+00 0.000000e+00
4.740446e-01 -1.617645e+00 0.000000e+00
6.339979e-01 -1.260414e+00 0.000000e+00
5.513125e-01 -1.121043e+00 0.000000e+00
3.253262e-01 -5.503742e-02 0.000000e+00
5.733100e-01 -2.191936e-01 0.000000e+00
6.599898e-01 -1.548197e-01 0.000000e+00
6.131834e-01 -1.934854e-01 0.000000e+00
6.641035e-01 -2.697251e-01 0.000000e+00
6.711745e-01 -2.941703e-01 0.000000e+00
5.782216e-01 -1.095152e+00 0.000000e+00
5.498571e-01 -2.528925e+00 0.000000e+00
5.394919e-01 -1.856172e+00 0.000000e+00
4.834646e-01 -5.939739e-01 0.000000e+00
6.695000e-01 -3.498811e-01 0.000000e+00
1.064645e+00 -2.596117e-01 0.000000e+00
1.339358e+00 -1.928758e-01 0.000000e+00
1.191962e+00 2.870944e-02 0.000000e+00
7.256437e-01 4.222882e-02 0.000000e+00
4.995040e-01 -4.671652e-02 0.000000e+00
3.111627e-01 -3.001480e-02 0.000000e+00
2.304481e-01 -3.197237e-02 0.000000e+00
0.000000e+00 1.635721e-03 0.000000e+00
0.000000e+00 -6.152952e-02 0.000000e+00
-6.190048e-01 -1.943603e-01 0.000000e+00
-1.226233e+00 -5.723102e-01 0.000000e+00
-1.588942e+00 -6.586315e-01 0.000000e+00
-1.081658e+00 -6.943491e-01 0.000000e+00
-1.458101e+00 -9.419254e-01 0.000000e+00
-1.305670e+00 -1.487491e+00 0.000000e+00
5.653886e-01 -1.118746e+00 0.000000e+00
-1.412642e+00 -1.441482e+00 0.000000e+00
7.689710e-01 3.599822e-01 0.000000e+00
-1.354981e+00 -1.500106e+00 0.000000e+00
3.533898e-01 1.026949e+00 0.000000e+00
-5.691015e-01 -2.699546e+00 0.000000e+00
-8.431222e-02 9.887391e-04 0.000000e+00
-3.681729e-01 -3.446520e+00 0.000000e+00
-5.324212e-02 1.046511e+00 0.000000e+00
1.978543e-01 -4.456265e+00 0.000000e+00
2.041429e-02 8.325179e-01 0.000000e+00
5.684093e-01 -2.477747e+00 0.000000e+00
6.988759e-01 -1.678978e+00 0.000000e+00
6.216672e-01 -1.117189e+00 0.000000e+00
4.559588e-01 -1.220336e+00 0.000000e+00
3.498641e-01 -3.500825e-01 0.000000e+00
5.437340e-01 -4.241726e-01 0.000000e+00
6.437024e-01 -2.833800e-01 0.000000e+00
6.180317e-01 -1.930795e-01 0.000000e+00
6.658832e-01 -3.853794e-01 0.000000e+00
6.857892e-01 -2.780697e-01 0.000000e+00
5.141598e-01 -9.066109e-01 0.000000e+00
4.005355e-01 -2.673395e+00 0.000000e+00
3.178183e-01 -2.107388e+00 0.000000e+00
9.153679e-02 -6.566635e-01 0.000000e+00
1.795911e-01 -4.386393e-01 0.000000e+00
5.006192e-01 -4.203632e-01 0.000000e+00
7.523688e-01 -3.238085e-01 0.000000e+00
7.408301e-01 -1.052662e-01 0.000000e+00
6.516240e-01 -5.102382e-02 0.000000e+00
5.262901e-01 -7.058494e-02 0.000000e+00
3.816505e-01 -4.631833e-02 0.000000e+00
2.950805e-01 -4.703934e-02 0.000000e+00
0.000000e+00 4.034854e-03 0.000000e+00
0.000000e+00 -6.357512e-01 0.000000e+00
-5.750605e-01 7.575923e-02 0.000000e+00
-1.474782e+00 -1.648413e-01 0.000000e+00
-1.872738e+00 -2.638956e-01 0.000000e+00
-2.090592e+00 -1.405775e+00 0.000000e+00
-2.226595e+00 -1.451010e+00 0.000000e+00
-2.216165e+00 -1.582769e+00 0.000000e+00
-1.489271e+00 -1.657948e+00 0.000000e+00
-2.668834e+00 -6.286653e-01 0.000000e+00
-1.152229e+00 -5.480420e-01 0.000000e+00
-2.463900e+00 -9.603759e-01 0.000000e+00
-5.680403e-01 3.437383e-01 0.000000e+00
-1.584321e+00 -2.265749e+00 0.000000e+00
-5.727471e-01 -3.390190e-01 0.000000e+00
-8.150745e-01 -3.218741e+00 0.000000e+00
-1.886267e-01 1.286163e+00 0.000000e+00
1.449048e-01 -4.175164e+00 0.000000e+00
-2.648381e-02 8.520136e-01 0.000000e+00
3.020596e-01 -2.411821e+00 0.000000e+00
3.565219e-01 -1.510909e+00 0.000000e+00
4.693017e-01 -1.067572e+00 0.000000e+00
5.314946e-01 -1.155532e+00 0.000000e+00
4.079965e-01 -4.861583e-01 0.000000e+00
4.699596e-01 -6.688345e-01 0.000000e+00
4.983042e-01 -4.627879e-01 0.000000e+00
5.192388e-01 -2.725397e-01 0.000000e+00
6.011858e-01 -5.095844e-01 0.000000e+00
6.263130e-01 -2.332796e-01 0.000000e+00
5.603303e-01 -6.499537e-01 0.000000e+00
4.790873e-01 -2.530449e+00 0.000000e+00
3.379878e-01 -2.204340e+00 0.000000e+00
1.513551e-01 -7.526750e-01 0.000000e+00
1.992033e-01 -3.993416e-01 0.000000e+00
4.598169e-01 -3.730373e-01 0.000000e+00
7.358665e-01 -3.033649e-01 0.000000e+00
7.510510e-01 -1.976332e-01 0.000000e+00
5.281810e-01 -1.117873e-01 0.000000e+00
4.075684e-01 -6.898687e-02 0.000000e+00
2.766148e-01 -6.414685e-02 0.000000e+00
2.041492e-01 -6.221615e-02 0.000000e+00
0.000000e+00 3.165435e-02 0.000000e+00
0.000000e+00 -1.523767e+00 0.000000e+00
-1.385256e+00 2.032210e-01 0.000000e+00
-1.707622e+00 -1.093773e-01 0.000000e+00
-1.993607e+00 -4.572944e-01 0.000000e+00
-1.289182e+00 -9.434573e-01 0.000000e+00
-2.080341e+00 -1.911958e+00 0.000000e+00
-2.113666e+00 -1.388316e+00 0.000000e+00
-1.784700e+00 -8.785192e-01 0.000000e+00
-2.490807e+00 -4.973721e-01 0.000000e+00
-9.721114e-01 -4.470122e-01 0.000000e+00
-1.913296e+00 -1.156043e+00 0.000000e+00
-5.075398e-01 -3.582531e-01 0.000000e+00
-1.352023e+00 -2.072186e+00 0.000000e+00
-5.459086e-01 5.678694e-02 0.000000e+00
-2.472001e-01 -3.062088e+00 0.000000e+00
-5.569459e-02 1.137702e+00 0.000000e+00
1.420816e-01 -3.799559e+00 0.000000e+00
-5.823074e-02 9.053177e-01 0.000000e+00
2.718641e-01 -2.398347e+00 0.000000e+00
2.783835e-01 -1.200396e+00 0.000000e+00
3.175703e-01 -1.029296e+00 0.000000e+00
4.626690e-01 -1.007866e+00 0.000000e+00
4.511082e-01 -4.305970e-01 0.000000e+00
5.105960e-01 -7.476141e-01 0.000000e+00
5.259854e-01 -5.785073e-01 0.000000e+00
5.241875e-01 -3.634489e-01 0.000000e+00
5.345335e-01 -5.923332e-01 0.000000e+00
5.155510e-01 -3.044793e-01 0.000000e+00
5.007426e-01 -5.646917e-01 0.000000e+00
4.378334e-01 -2.322015e+00 0.000000e+00
3.114026e-01 -2.101461e+00 0.000000e+00
7.415452e-02 -7.099975e-01 0.000000e+00
9.718033e-02 -3.231123e-01 0.000000e+00
3.773974e-01 -2.685357e-01 0.000000e+00
5.842131e-01 -2.182328e-01 0.000000e+00
5.874454e-01 -1.682587e-01 0.000000e+00
4.861371e-01 -1.173053e-01 0.000000e+00
4.630680e-01 -5.163264e-02 0.000000e+00
3.764302e-01 -5.496689e-02 0.000000e+00
2.563114e-01 -4.801997e-02 0.000000e+00
0.000000e+00 -2.518425e-02 0.000000e+00
0.000000e+00 -2.398303e+00 0.000000e+00
-1.827264e+00 4.080773e-01 0.000000e+00
-1.985458e+00 -3.844297e-01 0.000000e+00
-1.717318e+00 -3.167435e-01 0.000000e+00
-1.725806e+00 -6.541846e-01 0.000000e+00
-2.192075e+00 -1.284261e+00 0.000000e+00
-1.743532e+00 -1.674272e+00 0.000000e+00
-9.158340e-01 -3.508774e-01 0.000000e+00
-1.749175e+00 -7.143385e-01 0.000000e+00
-4.473753e-01 -3.198478e-01 0.000000e+00
-1.915117e+00 -1.233342e+00 0.000000e+00
-5.572897e-01 -9.414830e-01 0.000000e+00
-1.184431e+00 -1.498898e+00 0.000000e+00
-1.156816e-01 -9.851598e-02 0.000000e+00
-3.956836e-01 -2.617443e+00 0.000000e+00
-2.097005e-01 1.145587e+00 0.000000e+00
-1.564352e-01 -3.404965e+00 0.000000e+00
-3.070226e-01 1.114058e+00 0.000000e+00
-5.888955e-02 -2.323494e+00 0.000000e+00
-6.761963e-02 -8.272417e-01 0.000000e+00
8.455308e-02 -1.084248e+00 0.000000e+00
8.572417e-02 -9.966590e-01 0.000000e+00
7.877139e-02 -3.964820e-01 0.000000e+00
3.464148e-01 -6.937434e-01 0.000000e+00
5.076269e-01 -5.075846e-01 0.000000e+00
5.446266e-01 -3.313862e-01 0.000000e+00
5.528358e-01 -5.369712e-01 0.000000e+00
5.021401e-01 -2.745351e-01 0.000000e+00
4.466879e-01 -4.814800e-01 0.000000e+00
3.480513e-01 -2.076711e+00 0.000000e+00
1.962823e-01 -1.875602e+00 0.000000e+00
2.080517e-02 -5.767335e-01 0.000000e+00
6.517169e-02 -2.046773e-01 0.000000e+00
3.301381e-01 -1.488858e-01 0.000000e+00
5.436089e-01 -1.200929e-01 0.000000e+00
5.385078e-01 -1.122500e-01 0.000000e+00
3.595173e-01 -8.183294e-02 0.000000e+00
3.615198e-01 -4.806667e-02 0.000000e+00
2.939055e-01 -3.530380e-02 0.000000e+00
2.401164e-01 -4.737341e-02 0.000000e+00
0.000000e+00 1.071794e-02 0.000000e+00
0.000000e+00 -8.460914e-01 0.000000e+00
-1.347257e+00 -3.687894e-01 0.000000e+00
-1.725827e+00 -1.884009e-01 0.000000e+00
-1.406018e+00 3.494231e-01 0.000000e+00
1.735679e-01 3.684183e-01 0.000000e+00
-1.072748e+00 6.171881e-02 0.000000e+00
-1.340158e+00 -8.157607e-01 0.000000e+00
-2.126074e+00 -2.188485e-01 0.000000e+00
-2.577377e+00 -4.592572e-01 0.000000e+00
-1.554974e+00 4.215356e-01 0.000000e+00
-2.367752e+00 -1.266222e+00 0.000000e+00
-1.717594e+00 -3.068705e-01 0.000000e+00
-2.230237e+00 -1.608328e+00 0.000000e+00
-1.647549e+00 3.700848e-04 0.000000e+00
-1.146717e+00 -1.693501e+00 0.000000e+00
-7.943591e-01 9.223059e-04 0.000000e+00
-5.415413e-01 -2.539349e+00 0.000000e+00
-3.845973e-01 8.570796e-01 0.000000e+00
-7.880755e-02 -2.044395e+00 0.000000e+00
-1.964633e-01 -6.987720e-01 0.000000e+00
8.192663e-02 -1.139970e+00 0.000000e+00
6.922396e-02 -8.526181e-01 0.000000e+00
1.109704e-01 -4.166753e-01 0.000000e+00
1.898780e-01 -7.561069e-01 0.000000e+00
2.433562e-01 -5.085331e-01 0.000000e+00
3.103633e-01 -3.497544e-01 0.000000e+00
3.427541e-01 -4.656722e-01 0.000000e+00
3.535532e-01 -2.168852e-01 0.000000e+00
3.748770e-01 -3.738328e-01 0.000000e+00
2.498836e-01 -1.786683e+00 0.000000e+00
4.586114e-02 -1.577352e+00 0.000000e+00
-1.556324e-01 -4.083722e-01 0.000000e+00
-7.777357e-04 -1.001460e-01 0.000000e+00
3.201770e-01 -1.623645e-02 0.000000e+00
5.397981e-01 -9.859142e-03 0.000000e+00
5.498937e-01 -4.950019e-02 0.000000e+00
4.005743e-01 -4.828941e-02 0.000000e+00
3.798434e-01 -7.527532e-03 0.000000e+00
3.179929e-01 -2.576088e-02 0.000000e+00
2.141599e-01 -3.113433e-02 0.000000e+00
0.000000e+00 2.214813e-02 0.000000e+00
0.000000e+00 1.431061e+00 0.000000e+00
-2.672795e-01 -1.264361e+00 0.000000e+00
-1.732315e+00 -1.317525e-01 0.000000e+00
-1.807483e+00 1.155575e+00 0.000000e+00
-1.488326e+00 3.884092e-01 0.000000e+00
-2.922906e+00 9.932750e-01 0.000000e+00
-1.954775e+00 6.306102e-01 0.000000e+00
-1.806256e+00 4.711325e-02 0.000000e+00
-1.489393e+00 -1.421093e-01 0.000000e+00
-1.490762e+00 2.775416e-01 0.000000e+00
-2.178851e+00 -7.701973e-01 0.000000e+00
-1.203827e+00 -4.532230e-01 0.000000e+00
-6.880028e-01 -1.218215e+00 0.000000e+00
-6.871659e-01 -4.254815e-01 0.000000e+00
-5.074737e-01 -1.599239e+00 0.000000e+00
-3.382763e-01 -2.363131e-01 0.000000e+00
-4.605693e-02 -1.942226e+00 0.000000e+00
-1.448112e-01 4.732006e-01 0.000000e+00
7.039692e-02 -1.646046e+00 0.000000e+00
-2.005153e-01 -5.713872e-01 0.000000e+00
7.530062e-03 -1.021111e+00 0.000000e+00
-1.925827e-01 -6.767772e-01 0.000000e+00
-2.062013e-02 -3.286018e-01 0.000000e+00
2.359430e-01 -5.539575e-01 0.000000e+00
4.367689e-01 -3.683761e-01 0.000000e+00
4.517250e-01 -2.416396e-01 0.000000e+00
4.095377e-01 -3.336896e-01 0.000000e+00
3.873750e-01 -1.888943e-01 0.000000e+00
4.407776e-01 -2.747632e-01 0.000000e+00
2.927412e-01 -1.411197e+00 0.000000e+00
-4.324631e-02 -1.159883e+00 0.000000e+00
-3.313051e-01 -2.353103e-01 0.000000e+00
-1.984843e-01 -3.621033e-02 0.000000e+00
3.157777e-02 9.102460e-02 0.000000e+00
1.685860e-01 5.541385e-02 0.000000e+00
1.515817e-01 -1.937488e-02 0.000000e+00
1.254807e-01 -2.474737e-02 0.000000e+00
2.991434e-01 6.065862e-03 0.000000e+00
2.857086e-01 -4.882156e-03 0.000000e+00
2.132193e-01 -1.523093e-02 0.000000e+00
0.000000e+00 -5.607366e-03 0.000000e+00
0.000000e+00 1.321789e+00 0.000000e+00
-4.489559e-01 -1.117819e+00 0.000000e+00
-1.471879e+00 -2.183203e-01 0.000000e+00
-1.294872e+00 7.478278e-01 0.000000e+00
-1.459289e+00 -8.403659e-01 0.000000e+00
-2.351206e+00 2.073281e-01 0.000000e+00
-1.478359e+00 4.643033e-01 0.000000e+00
-2.334490e+00 -4.067338e-02 0.000000e+00
-2.272254e+00 1.067702e-01 0.000000e+00
-1.657697e+00 8.862308e-02 0.000000e+00
-2.623450e+00 -3.585755e-01 0.000000e+00
-1.427057e+00 -1.476828e-01 0.000000e+00
-1.342500e+00 -8.481876e-01 0.000000e+00
-8.664554e-01 -2.109839e-01 0.000000e+00
-1.873648e-01 -1.103744e+00 0.000000e+00
-8.275922e-01 1.994763e-01 0.000000e+00
-4.956993e-01 -1.085156e+00 0.000000e+00
-4.864866e-01 3.083830e-01 0.000000e+00
-1.706880e-01 -1.031475e+00 0.000000e+00
-2.258244e-01 -4.851253e-01 0.000000e+00
3.875623e-03 -6.815734e-01 0.000000e+00
-1.564420e-01 -3.413421e-01 0.000000e+00
2.381516e-02 -1.337132e-01 0.000000e+00
8.579946e-02 -3.408140e-01 0.000000e+00
2.191876e-01 -1.995002e-01 0.000000e+00
2.944816e-01 -1.393163e-01 0.000000e+00
4.192953e-01 -1.871314e-01 0.000000e+00
5.554174e-01 -1.276102e-01 0.000000e+00
6.760350e-01 -1.678076e-01 0.000000e+00
4.050628e-01 -9.376789e-01 0.000000e+00
-2.314212e-01 -6.472520e-01 0.000000e+00
-4.390648e-01 -4.605842e-02 0.000000e+00
-2.908029e-01 5.781395e-02 0.000000e+00
-5.394063e-02 2.145817e-01 0.000000e+00
1.633512e-01 1.362853e-01 0.000000e+00
1.930922e-01 2.601841e-02 0.000000e+00
1.678672e-01 2.038351e-02 0.000000e+00
2.868443e-01 1.904957e-02 0.000000e+00
2.792319e-01 -4.921010e-03 0.000000e+00
2.170071e-01 -9.356211e-03 0.000000e+00
0.000000e+00 6.088468e-03 0.000000e+00
0.000000e+00 0.000000e+00 0.000000e+00
-1.719184e+00 0.000000e+00 0.000000e+00
-1.160769e+00 0.000000e+00 0.000000e+00
-1.055473e+00 0.000000e+00 0.000000e+00
6.646215e-01 0.000000e+00 0.000000e+00
-1.744671e+00 0.000000e+00 0.000000e+00
-1.155055e+00 0.000000e+00 0.000000e+00
-1.836995e+00 0.000000e+00 0.000000e+00
-1.206235e+00 0.000000e+00 0.000000e+00
-1.873430e+00 0.000000e+00 0.000000e+00
-2.423793e+00 0.000000e+00 0.000000e+00
-1.627339e+00 0.000000e+00 0.000000e+00
-1.075389e+00 0.000000e+00 0.000000e+00
-1.710622e+00 0.000000e+00 0.000000e+00
-1.841043e+00 0.000000e+00 0.000000e+00
-1.650047e+00 0.000000e+00 0.000000e+00
-1.214692e+00 0.000000e+00 0.000000e+00
-9.378390e-01 0.000000e+00 0.000000e+00
-1.466798e-01 0.000000e+00 0.000000e+00
-5.812696e-01 0.000000e+00 0.000000e+00
-1.614253e-01 0.000000e+00 0.000000e+00
-6.524950e-01 0.000000e+00 0.000000e+00
-1.589022e-01 0.000000e+00 0.000000e+00
5.014411e-02 0.000000e+00 0.000000e+00
3.158678e-01 0.000000e+00 0.000000e+00
3.036897e-01 0.000000e+00 0.000000e+00
3.434347e-01 0.000000e+00 0.000000e+00
3.453018e-01 0.000000e+00 0.000000e+00
3.807543e-01 0.000000e+00 0.000000e+00
-1.731362e-01 0.000000e+00 0.000000e+00
-1.314079e+00 0.000000e+00 0.000000e+00
-1.340280e+00 0.000000e+00 0.000000e+00
-1.338932e+00 0.000000e+00 0.000000e+00
-9.400386e-01 0.000000e+00 0.000000e+00
-5.278636e-01 0.000000e+00 0.000000e+00
-2.462191e-01 0.000000e+00 0.000000e+00
-1.563108e-01 0.000000e+00 0.000000e+00
2.377328e-01 0.000000e+00 0.000000e+00
2.710101e-01 0.000000e+00 0.000000e+00
2.068090e-01 0.000000e+00 0.000000e+00
0.000000e+00 0.000000e+00 0.000000e+00
0.000000e+00 0.000000e+00 4.263143e-01
-2.105609e-01 0.000000e+00 4.115845e-01
-4.793860e-01 0.000000e+00 1.600576e-01
-3.771732e-01 0.000000e+00 5.464624e-01
-6.659953e-01 0.000000e+00 -5.063256e-02
-5.390030e-01 0.000000e+00 9.695812e-01
-3.594734e-01 0.000000e+00 6.435223e-01
-4.103578e-01 0.000000e+00 1.151363e+00
-9.169682e-01 0.000000e+00 -5.564135e-01
1.299038e-01 0.000000e+00 1.065098e+00
-6.378342e-01 0.000000e+00 1.322933e-01
3.990863e-01 0.000000e+00 7.036527e-01
1.739973e-01 0.000000e+00 4.586249e-01
-1.610850e-01 0.000000e+00 6.664976e-01
-9.768835e-02 0.000000e+00 8.309213e-01
-5.755466e-01 0.000000e+00 2.011302e-01
-8.749088e-01 0.000000e+00 1.793247e+00
-5.297446e-01 0.000000e+00 -1.126786e-01
-9.857370e-01 0.000000e+00 1.826837e+00
-5.675650e-01 0.000000e+00 1.750984e-01
-3.570314e-01 0.000000e+00 9.493682e-01
-2.793529e-01 0.000000e+00 2.243555e-01
-4.080850e-02 0.000000e+00 -1.737801e-01
4.712733e-01 0.000000e+00 -2.555426e-01
4.255883e-01 0.000000e+00 -3.829889e-01
4.465501e-01 0.000000e+00 -3.060368e-01
3.476676e-01 0.000000e+00 -2.537290e-01
2.722988e-01 0.000000e+00 -3.985872e-02
4.544855e-01 0.000000e+00 4.411971e-01
4.360179e-01 0.000000e+00 4.732282e-01
-2.137820e-01 0.000000e+00 1.156740e-01
-3.266458e-01 0.000000e+00 -6.155359e-02
1.731222e-03 0.000000e+00 1.549723e-02
2.262816e-01 0.000000e+00 1.209740e-01
2.454745e-01 0.000000e+00 2.132747e-01
2.918797e-01 0.000000e+00 2.246925e-01
5.218597e-01 0.000000e+00 1.923765e-01
5.225080e-01 0.000000e+00 1.971295e-01
4.272214e-01 0.000000e+00 1.426914e-01
2.766446e-01 0.000000e+00 1.557095e-01
0.000000e+00 0.000000e+00 2.956449e-01
0.000000e+00 2.533229e-03 4.073848e-01
-3.331548e-01 7.516400e-02 4.268053e-01
-2.126029e-01 -7.725462e-02 5.015534e-02
-7.187921e-01 5.028819e-02 6.567464e-02
-3.505792e-01 -1.394444e-01 3.119518e-01