# vtk DataFile Version 3.0
vtk output
ASCII
DATASET UNSTRUCTURED_GRID
POINTS 11275 float
0.000000e+00 0.000000e+00 0.000000e+00
1.460000e-02 0.000000e+00 0.000000e+00
2.920000e-02 0.000000e+00 0.000000e+00
4.380000e-02 0.000000e+00 0.000000e+00
5.840000e-02 0.000000e+00 0.000000e+00
7.300000e-02 0.000000e+00 0.000000e+00
8.760000e-02 0.000000e+00 0.000000e+00
1.022000e-01 0.000000e+00 0.000000e+00
1.168000e-01 0.000000e+00 0.000000e+00
1.314000e-01 0.000000e+00 0.000000e+00
1.460000e-01 0.000000e+00 0.000000e+00
1.606000e-01 0.000000e+00 0.000000e+00
1.752000e-01 0.000000e+00 0.000000e+00
1.898000e-01 0.000000e+00 0.000000e+00
2.044000e-01 0.000000e+00 0.000000e+00
2.190000e-01 0.000000e+00 0.000000e+00
2.336000e-01 0.000000e+00 0.000000e+00
2.482000e-01 0.000000e+00 0.000000e+00
2.628000e-01 0.000000e+00 0.000000e+00
2.774000e-01 0.000000e+00 0.000000e+00
2.920000e-01 0.000000e+00 0.000000e+00
3.066000e-01 0.000000e+00 0.000000e+00
3.212000e-01 0.000000e+00 0.000000e+00
3.358000e-01 0.000000e+00 0.000000e+00
3.504000e-01 0.000000e+00 0.000000e+00
3.650000e-01 0.000000e+00 0.000000e+00
3.796000e-01 0.000000e+00 0.000000e+00
3.942000e-01 0.000000e+00 0.000000e+00
4.088000e-01 0.000000e+00 0.000000e+00
4.234000e-01 0.000000e+00 0.000000e+00
4.380000e-01 0.000000e+00 0.000000e+00
4.526000e-01 0.000000e+00 0.000000e+00
4.672000e-01 0.000000e+00 0.000000e+00
4.818000e-01 0.000000e+00 0.000000e+00
4.964000e-01 0.000000e+00 0.000000e+00
5.110000e-01 0.000000e+00 0.000000e+00
5.256000e-01 0.000000e+00 0.000000e+00
5.402000e-01 0.000000e+00 0.000000e+00
5.548000e-01 0.000000e+00 0.000000e+00
5.694000e-01 0.000000e+00 0.000000e+00
5.840000e-01 0.000000e+00 0.000000e+00
0.000000e+00 1.460000e-02 0.000000e+00
1.460000e-02 1.460000e-02 0.000000e+00
2.920000e-02 1.460000e-02 0.000000e+00
4.380000e-02 1.460000e-02 0.000000e+00
5.840000e-02 1.460000e-02 0.000000e+00
7.300000e-02 1.460000e-02 0.000000e+00
8.760000e-02 1.460000e-02 0.000000e+00
1.022000e-01 1.460000e-02 0.000000e+00
1.168000e-01 1.460000e-02 0.000000e+00
1.314000e-01 1.460000e-02 0.000000e+00
1.460000e-01 1.460000e-02 0.000000e+00
1.606000e-01 1.460000e-02 0.000000e+00
1.752000e-01 1.460000e-02 0.000000e+00
1.898000e-01 1.460000e-02 0.000000e+00
2.044000e-01 1.460000e-02 0.000000e+00
2.190000e-01 1.460000e-02 0.000000e+00
2.336000e-01 1.460000e-02 0.000000e+00
2.482000e-01 1.460000e-02 0.000000e+00
2.628000e-01 1.460000e-02 0.000000e+00
2.774000e-01 1.460000e-02 0.000000e+00
2.920000e-01 1.460000e-02 0.000000e+00
3.066000e-01 1.460000e-02 0.000000e+00
3.212000e-01 1.460000e-02 0.000000e+00
3.358000e-01 1.460000e-02 0.000000e+00
3.504000e-01 1.460000e-02 0.000000e+00
3.650000e-01 1.460000e-02 0.000000e+00
3.796000e-01 1.460000e-02 0.000000e+00
3.942000e-01 1.460000e-02 0.000000e+00
4.088000e-01 1.460000e-02 0.000000e+00
4.234000e-01 1.460000e-02 0.000000e+00
4.380000e-01 1.460000e-02 0.000000e+00
4.526000e-01 1.460000e-02 0.000000e+00
4.672000e-01 1.460000e-02 0.000000e+00
4.818000e-01 1.460000e-02 0.000000e+00
4.964000e-01 1.460000e-02 0.000000e+00
5.110000e-01 1.460000e-02 0.000000e+00
5.256000e-01 1.460000e-02 0.000000e+00
5.402000e-01 1.460000e-02 0.000000e+00
5.548000e-01 1.460000e-02 0.000000e+00
5.694000e-01 1.460000e-02 0.000000e+00
5.840000e-01 1.460000e-02 0.000000e+00
0.000000e+00 2.920000e-02 0.000000e+00
1.460000e-02 2.920000e-02 0.000000e+00
2.920000e-02 2.920000e-02 0.000000e+00
4.380000e-02 2.920000e-02 0.000000e+00
5.840000e-02 2.920000e-02 0.000000e+00
7.300000e-02 2.920000e-02 0.000000e+00
8.760000e-02 2.920000e-02 0.000000e+00
1.022000e-01 2.920000e-02 0.000000e+00
1.168000e-01 2.920000e-02 0.000000e+00
1.314000e-01 2.920000e-02 0.000000e+00
1.460000e-01 2.920000e-02 0.000000e+00
1.606000e-01 2.920000e-02 0.000000e+00
1.752000e-01 2.920000e-02 0.000000e+00
1.898000e-01 2.920000e-02 0.000000e+00
2.044000e-01 2.920000e-02 0.000000e+00
2.190000e-01 2.920000e-02 0.000000e+00
2.336000e-01 2.920000e-02 0.000000e+00
2.482000e-01 2.920000e-02 0.000000e+00
2.628000e-01 2.920000e-02 0.000000e+00
2.774000e-01 2.920000e-02 0.000000e+00
2.920000e-01 2.920000e-02 0.000000e+00
3.066000e-01 2.920000e-02 0.000000e+00
3.212000e-01 2.920000e-02 0.000000e+00
3.358000e-01 2.920000e-02 0.000000e+00
3.504000e-01 2.920000e-02 0.000000e+00
3.650000e-01 2.920000e-02 0.000000e+00
3.796000e-01 2.920000e-02 0.000000e+00
3.942000e-01 2.920000e-02 0.000000e+00
4.088000e-01 2.920000e-02 0.000000e+00
4.234000e-01 2.920000e-02 0.000000e+00
4.380000e-01 2.920000e-02 0.000000e+00
4.526000e-01 2.920000e-02 0.000000e+00
4.672000e-01 2.920000e-02 0.000000e+00
4.818000e-01 2.920000e-02 0.000000e+00
4.964000e-01 2.920000e-02 0.000000e+00
5.110000e-01 2.920000e-02 0.000000e+00
5.256000e-01 2.920000e-02 0.000000e+00
5.402000e-01 2.920000e-02 0.000000e+00
5.548000e-01 2.920000e-02 0.000000e+00
5.694000e-01 2.920000e-02 0.000000e+00
5.840000e-01 2.920000e-02 0.000000e+00
0.000000e+00 4.380000e-02 0.000000e+00
1.460000e-02 4.380000e-02 0.000000e+00
2.920000e-02 4.380000e-02 0.000000e+00
4.380000e-02 4.380000e-02 0.000000e+00
5.840000e-02 4.380000e-02 0.000000e+00
7.300000e-02 4.380000e-02 0.000000e+00
8.760000e-02 4.380000e-02 0.000000e+00
1.022000e-01 4.380000e-02 0.000000e+00
1.168000e-01 4.380000e-02 0.000000e+00
1.314000e-01 4.380000e-02 0.000000e+00
1.460000e-01 4.380000e-02 0.000000e+00
1.606000e-01 4.380000e-02 0.000000e+00
1.752000e-01 4.380000e-02 0.000000e+00
1.898000e-01 4.380000e-02 0.000000e+00
2.044000e-01 4.380000e-02 0.000000e+00
2.190000e-01 4.380000e-02 0.000000e+00
2.336000e-01 4.380000e-02 0.000000e+00
2.482000e-01 4.380000e-02 0.000000e+00
2.628000e-01 4.380000e-02 0.000000e+00
2.774000e-01 4.380000e-02 0.000000e+00
2.920000e-01 4.380000e-02 0.000000e+00
3.066000e-01 4.380000e-02 0.000000e+00
3.212000e-01 4.380000e-02 0.000000e+00
3.358000e-01 4.380000e-02 0.000000e+00
3.504000e-01 4.380000e-02 0.000000e+00
3.650000e-01 4.380000e-02 0.000000e+00
3.796000e-01 4.380000e-02 0.000000e+00
3.942000e-01 4.380000e-02 0.000000e+00
4.088000e-01 4.380000e-02 0.000000e+00
4.234000e-01 4.380000e-02 0.000000e+00
4.380000e-01 4.380000e-02 0.000000e+00
4.526000e-01 4.380000e-02 0.000000e+00
4.672000e-01 4.380000e-02 0.000000e+00
4.818000e-01 4.380000e-02 0.000000e+00
4.964000e-01 4.380000e-02 0.000000e+00
5.110000e-01 4.380000e-02 0.000000e+00
5.256000e-01 4.380000e-02 0.000000e+00
5.402000e-01 4.380000e-02 0.000000e+00
5.548000e-01 4.380000e-02 0.000000e+00
5.694000e-01 4.380000e-02 0.000000e+00
5.840000e-01 4.380000e-02 0.000000e+00
0.000000e+00 5.840000e-02 0.000000e+00
1.460000e-02 5.840000e-02 0.000000e+00
2.920000e-02 5.840000e-02 0.000000e+00
4.380000e-02 5.840000e-02 0.000000e+00
5.840000e-02 5.840000e-02 0.000000e+00
7.300000e-02 5.840000e-02 0.000000e+00
8.760000e-02 5.840000e-02 0.000000e+00
1.022000e-01 5.840000e-02 0.000000e+00
1.168000e-01 5.840000e-02 0.000000e+00
1.314000e-01 5.840000e-02 0.000000e+00
1.460000e-01 5.840000e-02 0.000000e+00
1.606000e-01 5.840000e-02 0.000000e+00
1.752000e-01 5.840000e-02 0.000000e+00
1.898000e-01 5.840000e-02 0.000000e+00
2.044000e-01 5.840000e-02 0.000000e+00
2.190000e-01 5.840000e-02 0.000000e+00
2.336000e-01 5.840000e-02 0.000000e+00
2.482000e-01 5.840000e-02 0.000000e+00
2.628000e-01 5.840000e-02 0.000000e+00
2.774000e-01 5.840000e-02 0.000000e+00
2.920000e-01 5.840000e-02 0.000000e+00
3.066000e-01 5.840000e-02 0.000000e+00
3.212000e-01 5.840000e-02 0.000000e+00
3.358000e-01 5.840000e-02 0.000000e+00
3.504000e-01 5.840000e-02 0.000000e+00
3.650000e-01 5.840000e-02 0.000000e+00
3.796000e-01 5.840000e-02 0.000000e+00
3.942000e-01 5.840000e-02 0.000000e+00
4.088000e-01 5.840000e-02 0.000000e+00
4.234000e-01 5.840000e-02 0.000000e+00
4.380000e-01 5.840000e-02 0.000000e+00
4.526000e-01 5.840000e-02 0.000000e+00
4.672000e-01 5.840000e-02 0.000000e+00
4.818000e-01 5.840000e-02 0.000000e+00
4.964000e-01 5.840000e-02 0.000000e+00
5.110000e-01 5.840000e-02 0.000000e+00
5.256000e-01 5.840000e-02 0.000000e+00
5.402000e-01 5.840000e-02 0.000000e+00
5.548000e-01 5.840000e-02 0.000000e+00
5.694000e-01 5.840000e-02 0.000000e+00
5.840000e-01 5.840000e-02 0.000000e+00
0.000000e+00 7.300000e-02 0.000000e+00
1.460000e-02 7.300000e-02 0.000000e+00
2.920000e-02 7.300000e-02 0.000000e+00
4.380000e-02 7.300000e-02 0.000000e+00
5.840000e-02 7.300000e-02 0.000000e+00
7.300000e-02 7.300000e-02 0.000000e+00
8.760000e-02 7.300000e-02 0.000000e+00
1.022000e-01 7.300000e-02 0.000000e+00
1.168000e-01 7.300000e-02 0.000000e+00
1.314000e-01 7.300000e-02 0.000000e+00
1.460000e-01 7.300000e-02 0.000000e+00
1.606000e-01 7.300000e-02 0.000000e+00
1.752000e-01 7.300000e-02 0.000000e+00
1.898000e-01 7.300000e-02 0.000000e+00
2.044000e-01 7.300000e-02 0.000000e+00
2.190000e-01 7.300000e-02 0.000000e+00
2.336000e-01 7.300000e-02 0.000000e+00
2.482000e-01 7.300000e-02 0.000000e+00
2.628000e-01 7.300000e-02 0.000000e+00
2.774000e-01 7.300000e-02 0.000000e+00
2.920000e-01 7.300000e-02 0.000000e+00
3.066000e-01 7.300000e-02 0.000000e+00
3.212000e-01 7.300000e-02 0.000000e+00
3.358000e-01 7.300000e-02 0.000000e+00
3.504000e-01 7.300000e-02 0.000000e+00
3.650000e-01 7.300000e-02 0.000000e+00
3.796000e-01 7.300000e-02 0.000000e+00
3.942000e-01 7.300000e-02 0.000000e+00
4.088000e-01 7.300000e-02 0.000000e+00
4.234000e-01 7.300000e-02 0.000000e+00
4.380000e-01 7.300000e-02 0.000000e+00
4.526000e-01 7.300000e-02 0.000000e+00
4.672000e-01 7.300000e-02 0.000000e+00
4.818000e-01 7.300000e-02 0.000000e+00
4.964000e-01 7.300000e-02 0.000000e+00
5.110000e-01 7.300000e-02 0.000000e+00
5.256000e-01 7.300000e-02 0.000000e+00
5.402000e-01 7.300000e-02 0.000000e+00
5.548000e-01 7.300000e-02 0.000000e+00
5.694000e-01 7.300000e-02 0.000000e+00
5.840000e-01 7.300000e-02 0.000000e+00
0.000000e+00 8.760000e-02 0.000000e+00
1.460000e-02 8.760000e-02 0.000000e+00
2.920000e-02 8.760000e-02 0.000000e+00
4.380000e-02 8.760000e-02 0.000000e+00
5.840000e-02 8.760000e-02 0.000000e+00
7.300000e-02 8.760000e-02 0.000000e+00
8.760000e-02 8.760000e-02 0.000000e+00
1.022000e-01 8.760000e-02 0.000000e+00
[...]
POINT_DATA 11275
VECTORS Velocity float
0.000000e+00 0.000000e+00 0.000000e+00
1.080356e-01 0.000000e+00 0.000000e+00
2.000383e-01 0.000000e+00 0.000000e+00
2.888939e-01 0.000000e+00 0.000000e+00
3.777767e-01 0.000000e+00 0.000000e+00
4.700461e-01 0.000000e+00 0.000000e+00
5.624210e-01 0.000000e+00 0.000000e+00
6.595002e-01 0.000000e+00 0.000000e+00
7.584636e-01 0.000000e+00 0.000000e+00
8.617861e-01 0.000000e+00 0.000000e+00
9.687211e-01 0.000000e+00 0.000000e+00
1.078077e+00 0.000000e+00 0.000000e+00
1.188460e+00 0.000000e+00 0.000000e+00
1.297666e+00 0.000000e+00 0.000000e+00
1.402467e+00 0.000000e+00 0.000000e+00
1.500467e+00 0.000000e+00 0.000000e+00
1.590815e+00 0.000000e+00 0.000000e+00
1.673356e+00 0.000000e+00 0.000000e+00
1.748215e+00 0.000000e+00 0.000000e+00
1.815739e+00 0.000000e+00 0.000000e+00
1.877263e+00 0.000000e+00 0.000000e+00
1.933678e+00 0.000000e+00 0.000000e+00
1.992081e+00 0.000000e+00 0.000000e+00
2.038309e+00 0.000000e+00 0.000000e+00
2.156567e+00 0.000000e+00 0.000000e+00
2.178651e+00 0.000000e+00 0.000000e+00
2.204607e+00 0.000000e+00 0.000000e+00
2.272052e+00 0.000000e+00 0.000000e+00
2.350883e+00 0.000000e+00 0.000000e+00
2.352594e+00 0.000000e+00 0.000000e+00
2.385578e+00 0.000000e+00 0.000000e+00
2.401731e+00 0.000000e+00 0.000000e+00
2.394995e+00 0.000000e+00 0.000000e+00
2.349853e+00 0.000000e+00 0.000000e+00
2.177787e+00 0.000000e+00 0.000000e+00
1.963460e+00 0.000000e+00 0.000000e+00
1.648584e+00 0.000000e+00 0.000000e+00
1.366007e+00 0.000000e+00 0.000000e+00
1.002248e+00 0.000000e+00 0.000000e+00
6.679776e-01 0.000000e+00 0.000000e+00
0.000000e+00 0.000000e+00 0.000000e+00
0.000000e+00 -7.799245e-04 0.000000e+00
1.077718e-01 -6.440842e-04 0.000000e+00
1.998123e-01 -6.003227e-04 0.000000e+00
2.886608e-01 -5.758286e-04 0.000000e+00
3.775601e-01 -5.992044e-04 0.000000e+00
4.698304e-01 -5.961808e-04 0.000000e+00
5.622066e-01 -6.298776e-04 0.000000e+00
6.592867e-01 -6.593689e-04 0.000000e+00
7.582468e-01 -6.936164e-04 0.000000e+00
8.615659e-01 -7.421209e-04 0.000000e+00
9.684977e-01 -7.859878e-04 0.000000e+00
1.077847e+00 -8.322054e-04 0.000000e+00
1.188219e+00 -8.857071e-04 0.000000e+00
1.297411e+00 -9.353292e-04 0.000000e+00
1.402186e+00 -9.860165e-04 0.000000e+00
1.500152e+00 -1.049800e-03 0.000000e+00
1.590458e+00 -1.123685e-03 0.000000e+00
1.672958e+00 -1.196331e-03 0.000000e+00
1.747753e+00 -1.278094e-03 0.000000e+00
1.815277e+00 -1.347627e-03 0.000000e+00
1.876474e+00 -1.446657e-03 0.000000e+00
1.934049e+00 -1.526556e-03 0.000000e+00
1.986232e+00 -1.650684e-03 0.000000e+00
2.060852e+00 -1.857139e-03 0.000000e+00
2.067406e+00 -1.934498e-03 0.000000e+00
2.263424e+00 -1.532771e-03 0.000000e+00
2.255204e+00 -1.591224e-03 0.000000e+00
2.286274e+00 -1.907830e-03 0.000000e+00
2.324677e+00 -1.817438e-03 0.000000e+00
2.371464e+00 -1.677397e-03 0.000000e+00
2.385898e+00 -3.586087e-04 0.000000e+00
2.409962e+00 -1.904007e-03 0.000000e+00
2.430823e+00 -9.840787e-04 0.000000e+00
2.352800e+00 -6.650742e-04 0.000000e+00
2.211175e+00 -3.063053e-04 0.000000e+00
1.950982e+00 3.499481e-03 0.000000e+00
1.683993e+00 6.123119e-03 0.000000e+00
1.363906e+00 7.828189e-03 0.000000e+00
1.011441e+00 1.127787e-02 0.000000e+00
7.056099e-01 7.514063e-03 0.000000e+00
0.000000e+00 4.478230e-02 0.000000e+00
0.000000e+00 -4.695787e-04 0.000000e+00
1.079178e-01 -6.183209e-04 0.000000e+00
1.999134e-01 -7.007217e-04 0.000000e+00
2.887420e-01 -7.057966e-04 0.000000e+00
3.776121e-01 -7.814713e-04 0.000000e+00
4.698599e-01 -7.997399e-04 0.000000e+00
5.622076e-01 -8.750205e-04 0.000000e+00
6.592681e-01 -9.375064e-04 0.000000e+00
7.582011e-01 -1.007555e-03 0.000000e+00
8.614979e-01 -1.097371e-03 0.000000e+00
9.684083e-01 -1.176913e-03 0.000000e+00
1.077730e+00 -1.259015e-03 0.000000e+00
1.188071e+00 -1.351465e-03 0.000000e+00
1.297223e+00 -1.436137e-03 0.000000e+00
1.401941e+00 -1.523130e-03 0.000000e+00
1.499834e+00 -1.632057e-03 0.000000e+00
1.590063e+00 -1.758484e-03 0.000000e+00
1.672472e+00 -1.883090e-03 0.000000e+00
1.747183e+00 -2.028037e-03 0.000000e+00
1.814545e+00 -2.148103e-03 0.000000e+00
1.875877e+00 -2.339627e-03 0.000000e+00
1.932112e+00 -2.436401e-03 0.000000e+00
1.990239e+00 -2.827950e-03 0.000000e+00
2.036255e+00 -2.579552e-03 0.000000e+00
2.154806e+00 -4.566000e-03 0.000000e+00
2.169322e+00 -1.064057e-03 0.000000e+00
2.200590e+00 -3.504479e-03 0.000000e+00
2.268165e+00 -3.632534e-03 0.000000e+00
2.349574e+00 -2.156992e-03 0.000000e+00
2.334100e+00 -1.708397e-03 0.000000e+00
2.401654e+00 -5.666126e-03 0.000000e+00
2.397441e+00 -1.005459e-03 0.000000e+00
2.393667e+00 -1.346198e-03 0.000000e+00
2.345300e+00 -1.054700e-03 0.000000e+00
2.172965e+00 2.430050e-04 0.000000e+00
1.957744e+00 6.271077e-03 0.000000e+00
1.644388e+00 1.133242e-02 0.000000e+00
1.364424e+00 1.383259e-02 0.000000e+00
1.003904e+00 1.526850e-02 0.000000e+00
6.836807e-01 1.591293e-02 0.000000e+00
0.000000e+00 3.482412e-02 0.000000e+00
0.000000e+00 -1.406717e-03 0.000000e+00
1.078178e-01 -1.186152e-03 0.000000e+00
1.998259e-01 -1.144135e-03 0.000000e+00
2.886367e-01 -1.110267e-03 0.000000e+00
3.775077e-01 -1.173783e-03 0.000000e+00
4.697442e-01 -1.180182e-03 0.000000e+00
5.620812e-01 -1.262671e-03 0.000000e+00
6.591380e-01 -1.329763e-03 0.000000e+00
7.580599e-01 -1.411287e-03 0.000000e+00
8.613537e-01 -1.515288e-03 0.000000e+00
9.682630e-01 -1.606131e-03 0.000000e+00
1.077576e+00 -1.700297e-03 0.000000e+00
1.187908e+00 -1.806152e-03 0.000000e+00
1.297038e+00 -1.901985e-03 0.000000e+00
1.401712e+00 -2.002338e-03 0.000000e+00
1.499547e+00 -2.131672e-03 0.000000e+00
1.589708e+00 -2.283300e-03 0.000000e+00
1.672044e+00 -2.436645e-03 0.000000e+00
1.746653e+00 -2.615367e-03 0.000000e+00
1.813972e+00 -2.775431e-03 0.000000e+00
1.874928e+00 -3.001770e-03 0.000000e+00
1.932282e+00 -3.194742e-03 0.000000e+00
1.984108e+00 -3.478960e-03 0.000000e+00
2.058818e+00 -3.934338e-03 0.000000e+00
2.062225e+00 -4.179094e-03 0.000000e+00
2.276530e+00 -3.169998e-03 0.000000e+00
2.256210e+00 -2.857460e-03 0.000000e+00
2.283249e+00 -4.473380e-03 0.000000e+00
2.319626e+00 -2.437173e-03 0.000000e+00
2.373227e+00 -3.252285e-03 0.000000e+00
2.373128e+00 -5.093862e-03 0.000000e+00
2.405908e+00 -1.677978e-03 0.000000e+00
2.418706e+00 -2.298278e-03 0.000000e+00
2.345154e+00 -7.288954e-04 0.000000e+00
2.202454e+00 -1.512996e-04 0.000000e+00
1.943406e+00 1.031568e-02 0.000000e+00
1.676169e+00 1.501723e-02 0.000000e+00
1.362590e+00 1.978500e-02 0.000000e+00
1.000686e+00 2.695812e-02 0.000000e+00
6.921788e-01 1.614995e-02 0.000000e+00
0.000000e+00 1.194739e-01 0.000000e+00
0.000000e+00 -8.525783e-04 0.000000e+00
1.078348e-01 -1.034137e-03 0.000000e+00
1.998143e-01 -1.130902e-03 0.000000e+00
2.885979e-01 -1.137105e-03 0.000000e+00
3.774454e-01 -1.241318e-03 0.000000e+00
4.696573e-01 -1.267611e-03 0.000000e+00
5.619677e-01 -1.376457e-03 0.000000e+00
6.590089e-01 -1.461230e-03 0.000000e+00
7.579079e-01 -1.563919e-03 0.000000e+00
8.611905e-01 -1.686069e-03 0.000000e+00
9.680913e-01 -1.792813e-03 0.000000e+00
1.077390e+00 -1.901952e-03 0.000000e+00
1.187707e+00 -2.021774e-03 0.000000e+00
1.296810e+00 -2.129194e-03 0.000000e+00
1.401432e+00 -2.241824e-03 0.000000e+00
1.499200e+00 -2.386293e-03 0.000000e+00
1.589287e+00 -2.554812e-03 0.000000e+00
1.671536e+00 -2.727049e-03 0.000000e+00
1.746056e+00 -2.928046e-03 0.000000e+00
1.813214e+00 -3.110088e-03 0.000000e+00
1.874293e+00 -3.376074e-03 0.000000e+00
1.930320e+00 -3.544633e-03 0.000000e+00
1.988056e+00 -4.074999e-03 0.000000e+00
2.033763e+00 -3.718954e-03 0.000000e+00
2.154239e+00 -6.454001e-03 0.000000e+00
2.151011e+00 -2.564724e-03 0.000000e+00
2.194085e+00 -4.208163e-03 0.000000e+00
2.266775e+00 -6.891998e-03 0.000000e+00
2.347865e+00 -2.844258e-03 0.000000e+00
2.352537e+00 -4.486000e-03 0.000000e+00
2.387232e+00 -5.259979e-03 0.000000e+00
2.405668e+00 -2.986769e-03 0.000000e+00
2.392787e+00 -2.122516e-03 0.000000e+00
2.345032e+00 -8.900016e-04 0.000000e+00
2.171399e+00 7.746391e-04 0.000000e+00
1.956078e+00 1.136245e-02 0.000000e+00
1.646496e+00 1.689515e-02 0.000000e+00
1.369735e+00 2.235000e-02 0.000000e+00
1.004248e+00 2.518599e-02 0.000000e+00
7.060092e-01 2.130424e-02 0.000000e+00
0.000000e+00 6.341871e-02 0.000000e+00
0.000000e+00 -1.628463e-03 0.000000e+00
1.077987e-01 -1.386546e-03 0.000000e+00
1.997677e-01 -1.348128e-03 0.000000e+00
2.885256e-01 -1.311376e-03 0.000000e+00
3.773597e-01 -1.389119e-03 0.000000e+00
4.695509e-01 -1.398347e-03 0.000000e+00
5.618412e-01 -1.499070e-03 0.000000e+00
6.588718e-01 -1.574932e-03 0.000000e+00
7.577533e-01 -1.675157e-03 0.000000e+00
8.610307e-01 -1.793467e-03 0.000000e+00
9.679278e-01 -1.898151e-03 0.000000e+00
1.077217e+00 -2.006212e-03 0.000000e+00
1.187522e+00 -2.125101e-03 0.000000e+00
1.296600e+00 -2.231941e-03 0.000000e+00
1.401172e+00 -2.345350e-03 0.000000e+00
1.498874e+00 -2.492260e-03 0.000000e+00
1.588884e+00 -2.663262e-03 0.000000e+00
1.671049e+00 -2.841137e-03 0.000000e+00
1.745455e+00 -3.045376e-03 0.000000e+00
1.812556e+00 -3.239930e-03 0.000000e+00
1.873253e+00 -3.497719e-03 0.000000e+00
1.930380e+00 -3.726838e-03 0.000000e+00
1.981872e+00 -4.080241e-03 0.000000e+00
2.056801e+00 -4.399579e-03 0.000000e+00
2.056300e+00 -5.239598e-03 0.000000e+00
2.294707e+00 -3.131502e-03 0.000000e+00
2.259852e+00 -3.323186e-03 0.000000e+00
2.277291e+00 -5.080040e-03 0.000000e+00
2.311273e+00 -4.249893e-03 0.000000e+00
2.365168e+00 -4.134951e-03 0.000000e+00
2.379095e+00 -1.306309e-02 0.000000e+00
2.390676e+00 -3.984570e-03 0.000000e+00
2.415478e+00 -2.729078e-03 0.000000e+00
2.335926e+00 1.985593e-04 0.000000e+00
2.193805e+00 5.359926e-05 0.000000e+00
1.936177e+00 1.483559e-02 0.000000e+00
1.668916e+00 1.734269e-02 0.000000e+00
1.354343e+00 2.760753e-02 0.000000e+00
9.955034e-01 2.859273e-02 0.000000e+00
6.787721e-01 2.361348e-02 0.000000e+00
0.000000e+00 8.064647e-02 0.000000e+00
0.000000e+00 -8.540167e-04 0.000000e+00
1.077661e-01 -1.034931e-03 0.000000e+00
1.997222e-01 -1.132747e-03 0.000000e+00
2.884540e-01 -1.137675e-03 0.000000e+00
3.772744e-01 -1.243948e-03 0.000000e+00
4.694446e-01 -1.267620e-03 0.000000e+00
5.617149e-01 -1.380416e-03 0.000000e+00
6.587347e-01 -1.461461e-03 0.000000e+00
7.575985e-01 -1.568137e-03 0.000000e+00
8.608708e-01 -1.688416e-03 0.000000e+00
9.677638e-01 -1.796080e-03 0.000000e+00
1.077043e+00 -1.906267e-03 0.000000e+00
1.187337e+00 -2.025858e-03 0.000000e+00
1.296390e+00 -2.133457e-03 0.000000e+00
1.400911e+00 -2.246920e-03 0.000000e+00
1.498546e+00 -2.392753e-03 0.000000e+00
1.588481e+00 -2.559237e-03 0.000000e+00
1.670556e+00 -2.736289e-03 0.000000e+00
1.744872e+00 -2.928775e-03 0.000000e+00
1.811810e+00 -3.126978e-03 0.000000e+00
1.872627e+00 -3.360480e-03 0.000000e+00
1.928433e+00 -3.572802e-03 0.000000e+00
1.985821e+00 -4.021051e-03 0.000000e+00
2.031186e+00 -3.684216e-03 0.000000e+00
2.154755e+00 -6.102310e-03 0.000000e+00
2.133020e+00 -3.184800e-03 0.000000e+00
2.183920e+00 -3.744275e-03 0.000000e+00
2.261342e+00 -4.651244e-03 0.000000e+00
2.336133e+00 -3.834842e-03 0.000000e+00
2.345138e+00 -1.486069e-03 0.000000e+00
2.377727e+00 -8.775572e-03 0.000000e+00
2.396008e+00 -6.357135e-03 0.000000e+00
2.387640e+00 -3.555970e-03 0.000000e+00
2.339754e+00 -9.878381e-04 0.000000e+00
2.167137e+00 6.352899e-04 0.000000e+00
1.952371e+00 1.247840e-02 0.000000e+00
1.648833e+00 1.768587e-02 0.000000e+00
1.370006e+00 2.365243e-02 0.000000e+00
9.900107e-01 2.833267e-02 0.000000e+00
6.943836e-01 1.698302e-02 0.000000e+00
0.000000e+00 3.878241e-02 0.000000e+00
0.000000e+00 -1.409574e-03 0.000000e+00
1.077806e-01 -1.187914e-03 0.000000e+00
1.997098e-01 -1.147322e-03 0.000000e+00
2.884140e-01 -1.111373e-03 0.000000e+00
3.772118e-01 -1.178296e-03 0.000000e+00
4.693566e-01 -1.180237e-03 0.000000e+00
5.616007e-01 -1.269392e-03 0.000000e+00
6.586047e-01 -1.330190e-03 0.000000e+00
7.574453e-01 -1.418417e-03 0.000000e+00
8.607073e-01 -1.519323e-03 0.000000e+00
9.675908e-01 -1.611704e-03 0.000000e+00
1.076857e+00 -1.707706e-03 0.000000e+00
1.187135e+00 -1.813240e-03 0.000000e+00
1.296160e+00 -1.909347e-03 0.000000e+00
1.400630e+00 -2.011305e-03 0.000000e+00
1.498199e+00 -2.142767e-03 0.000000e+00
1.588057e+00 -2.291506e-03 0.000000e+00
1.670049e+00 -2.451873e-03 0.000000e+00
1.744253e+00 -2.618413e-03 0.000000e+00
1.811135e+00 -2.801488e-03 0.000000e+00
1.871581e+00 -2.981644e-03 0.000000e+00
1.928469e+00 -3.229920e-03 0.000000e+00
1.979749e+00 -3.431051e-03 0.000000e+00
2.054793e+00 -3.728956e-03 0.000000e+00
2.051849e+00 -4.563192e-03 0.000000e+00
2.307565e+00 -2.648525e-03 0.000000e+00
2.269865e+00 -2.134385e-03 0.000000e+00
2.279802e+00 -4.456244e-03 0.000000e+00
2.320246e+00 -2.732956e-03 0.000000e+00
2.372065e+00 -1.811220e-03 0.000000e+00
2.394680e+00 -7.802226e-03 0.000000e+00
2.402747e+00 -2.735768e-03 0.000000e+00
2.415895e+00 -2.736995e-03 0.000000e+00
2.334044e+00 3.382564e-04 0.000000e+00
2.188535e+00 3.631865e-04 0.000000e+00
1.931168e+00 1.243796e-02 0.000000e+00
1.662162e+00 1.554742e-02 0.000000e+00
1.347430e+00 2.319222e-02 0.000000e+00
9.954609e-01 2.219338e-02 0.000000e+00
6.771062e-01 2.596993e-02 0.000000e+00
0.000000e+00 4.187479e-02 0.000000e+00
0.000000e+00 -4.717900e-04 0.000000e+00
1.076838e-01 -6.194175e-04 0.000000e+00
1.996235e-01 -7.038492e-04 0.000000e+00
2.883091e-01 -7.065553e-04 0.000000e+00
3.771079e-01 -7.860973e-04 0.000000e+00
4.692403e-01 -7.995265e-04 0.000000e+00
5.614744e-01 -8.820760e-04 0.000000e+00
6.584740e-01 -9.378816e-04 0.000000e+00
7.573031e-01 -1.015117e-03 0.000000e+00
8.605632e-01 -1.101848e-03 0.000000e+00
9.674440e-01 -1.183049e-03 0.000000e+00
1.076702e+00 -1.267311e-03 0.000000e+00
1.186970e+00 -1.359567e-03 0.000000e+00
1.295973e+00 -1.444564e-03 0.000000e+00
1.400398e+00 -1.533384e-03 0.000000e+00
1.497908e+00 -1.644721e-03 0.000000e+00
1.587700e+00 -1.768150e-03 0.000000e+00
1.669612e+00 -1.899956e-03 0.000000e+00
1.743738e+00 -2.032413e-03 0.000000e+00
1.810468e+00 -2.175847e-03 0.000000e+00
1.871046e+00 -2.319189e-03 0.000000e+00
1.926637e+00 -2.480680e-03 0.000000e+00
1.983739e+00 -2.739531e-03 0.000000e+00
2.028834e+00 -2.559558e-03 0.000000e+00
2.154653e+00 -3.925301e-03 0.000000e+00
2.120277e+00 -2.698589e-03 0.000000e+00
2.172095e+00 -2.303364e-03 0.000000e+00
2.253111e+00 -3.430865e-03 0.000000e+00
2.316954e+00 -2.302817e-03 0.000000e+00
2.347016e+00 -3.403936e-03 0.000000e+00
2.356817e+00 -3.380421e-03 0.000000e+00
2.384241e+00 -3.197472e-03 0.000000e+00
2.376988e+00 -2.013263e-03 0.000000e+00
2.330903e+00 -2.463584e-04 0.000000e+00
2.158678e+00 7.090187e-04 0.000000e+00
1.943390e+00 8.340875e-03 0.000000e+00
1.641740e+00 1.379031e-02 0.000000e+00
1.358469e+00 1.498053e-02 0.000000e+00
9.671049e-01 2.072284e-02 0.000000e+00
6.697340e-01 1.041101e-02 0.000000e+00
0.000000e+00 1.534337e-02 0.000000e+00
0.000000e+00 -7.825841e-04 0.000000e+00
1.078289e-01 -6.458157e-04 0.000000e+00
1.997244e-01 -6.029523e-04 0.000000e+00
2.883893e-01 -5.768135e-04 0.000000e+00
3.771598e-01 -6.027460e-04 0.000000e+00
4.692686e-01 -5.963370e-04 0.000000e+00
5.614748e-01 -6.349821e-04 0.000000e+00
6.584543e-01 -6.599925e-04 0.000000e+00
7.572556e-01 -6.990183e-04 0.000000e+00
8.604942e-01 -7.456468e-04 0.000000e+00
9.673522e-01 -7.905803e-04 0.000000e+00
1.076583e+00 -8.383290e-04 0.000000e+00
1.186820e+00 -8.918316e-04 0.000000e+00
1.295783e+00 -9.415933e-04 0.000000e+00
1.400149e+00 -9.936216e-04 0.000000e+00
1.497587e+00 -1.058969e-03 0.000000e+00
1.587298e+00 -1.131239e-03 0.000000e+00
1.669125e+00 -1.207780e-03 0.000000e+00
1.743141e+00 -1.282963e-03 0.000000e+00
1.809817e+00 -1.363962e-03 0.000000e+00
1.870034e+00 -1.440458e-03 0.000000e+00
1.926681e+00 -1.541257e-03 0.000000e+00
1.977793e+00 -1.639935e-03 0.000000e+00
2.052755e+00 -1.700057e-03 0.000000e+00
2.048790e+00 -2.177412e-03 0.000000e+00
2.311534e+00 -1.083553e-03 0.000000e+00
2.275468e+00 -6.929403e-04 0.000000e+00
2.279314e+00 -1.542887e-03 0.000000e+00
2.321026e+00 -8.694691e-04 0.000000e+00
2.366477e+00 -4.812526e-04 0.000000e+00
2.392683e+00 -3.413228e-03 0.000000e+00
2.399948e+00 -2.151821e-03 0.000000e+00
2.411256e+00 -1.751656e-03 0.000000e+00
2.329136e+00 -3.341724e-04 0.000000e+00
2.182886e+00 -5.823584e-05 0.000000e+00
1.927004e+00 4.378421e-03 0.000000e+00
1.657751e+00 6.923188e-03 0.000000e+00
1.347863e+00 8.343233e-03 0.000000e+00
9.959948e-01 9.126438e-03 0.000000e+00
6.828213e-01 8.842797e-03 0.000000e+00
0.000000e+00 1.764321e-02 0.000000e+00
0.000000e+00 0.000000e+00 0.000000e+00
1.075659e-01 0.000000e+00 0.000000e+00
1.994987e-01 0.000000e+00 0.000000e+00
2.881562e-01 0.000000e+00 0.000000e+00
3.769431e-01 0.000000e+00 0.000000e+00
4.690524e-01 0.000000e+00 0.000000e+00
5.612600e-01 0.000000e+00 0.000000e+00
6.582404e-01 0.000000e+00 0.000000e+00
7.570379e-01 0.000000e+00 0.000000e+00
8.602736e-01 0.000000e+00 0.000000e+00
9.671279e-01 0.000000e+00 0.000000e+00
1.076352e+00 0.000000e+00 0.000000e+00
1.186580e+00 0.000000e+00 0.000000e+00
1.295527e+00 0.000000e+00 0.000000e+00
1.399866e+00 0.000000e+00 0.000000e+00
1.497270e+00 0.000000e+00 0.000000e+00
1.586942e+00 0.000000e+00 0.000000e+00
1.668721e+00 0.000000e+00 0.000000e+00
1.742698e+00 0.000000e+00 0.000000e+00
1.809264e+00 0.000000e+00 0.000000e+00
1.869656e+00 0.000000e+00 0.000000e+00
1.925066e+00 0.000000e+00 0.000000e+00
1.981958e+00 0.000000e+00 0.000000e+00
2.026877e+00 0.000000e+00 0.000000e+00
2.153386e+00 0.000000e+00 0.000000e+00
2.114958e+00 0.000000e+00 0.000000e+00
2.167874e+00 0.000000e+00 0.000000e+00
2.252075e+00 0.000000e+00 0.000000e+00
2.314368e+00 0.000000e+00 0.000000e+00
2.350954e+00 0.000000e+00 0.000000e+00
2.366190e+00 0.000000e+00 0.000000e+00
2.387052e+00 0.000000e+00 0.000000e+00
2.375173e+00 0.000000e+00 0.000000e+00
2.325905e+00 0.000000e+00 0.000000e+00
2.151481e+00 0.000000e+00 0.000000e+00
1.933627e+00 0.000000e+00 0.000000e+00
1.632916e+00 0.000000e+00 0.000000e+00
1.343128e+00 0.000000e+00 0.000000e+00
9.615514e-01 0.000000e+00 0.000000e+00
6.554486e-01 0.000000e+00 0.000000e+00
0.000000e+00 0.000000e+00 0.000000e+00
0.000000e+00 0.000000e+00 -1.126977e-01
8.877313e-02 0.000000e+00 -1.043112e-01
1.807309e-01 0.000000e+00 -9.841353e-02
2.701344e-01 0.000000e+00 -9.613913e-02
3.605611e-01 0.000000e+00 -9.980742e-02
4.528839e-01 0.000000e+00 -9.955668e-02
5.455234e-01 0.000000e+00 -1.027574e-01
6.426694e-01 0.000000e+00 -1.056821e-01
7.417677e-01 0.000000e+00 -1.085589e-01
8.457168e-01 0.000000e+00 -1.130890e-01
9.538854e-01 0.000000e+00 -1.165269e-01
1.065622e+00 0.000000e+00 -1.190122e-01
1.180385e+00 0.000000e+00 -1.203439e-01
1.296522e+00 0.000000e+00 -1.190660e-01
1.411168e+00 0.000000e+00 -1.148258e-01
1.522152e+00 0.000000e+00 -1.090796e-01
1.628410e+00 0.000000e+00 -1.028716e-01
1.728972e+00 0.000000e+00 -9.611624e-02
1.822636e+00 0.000000e+00 -8.907861e-02
1.908360e+00 0.000000e+00 -8.167786e-02
1.985753e+00 0.000000e+00 -7.587474e-02
2.055795e+00 0.000000e+00 -6.934270e-02
2.116924e+00 0.000000e+00 -7.251886e-02
2.188451e+00 0.000000e+00 -5.801095e-02
2.195800e+00 0.000000e+00 -1.121968e-01
2.356226e+00 0.000000e+00 -2.565006e-02
2.348027e+00 0.000000e+00 -2.096025e-02
2.363446e+00 0.000000e+00 -5.719276e-02
2.384876e+00 0.000000e+00 -4.252077e-02
2.416628e+00 0.000000e+00 -2.115712e-02
2.400352e+00 0.000000e+00 -1.413317e-02
2.415247e+00 0.000000e+00 -1.600093e-02
2.414562e+00 0.000000e+00 1.536226e-02
2.317866e+00 0.000000e+00 1.149740e-01
2.156656e+00 0.000000e+00 1.978419e-01
1.886607e+00 0.000000e+00 2.651178e-01
1.603118e+00 0.000000e+00 2.900406e-01
1.264314e+00 0.000000e+00 3.164044e-01
9.228232e-01 0.000000e+00 3.008412e-01
5.607596e-01 0.000000e+00 4.582594e-01
0.000000e+00 0.000000e+00 6.283632e-01
0.000000e+00 -6.070781e-04 -1.130855e-01
8.865734e-02 -6.049011e-04 -1.045655e-01
1.805520e-01 -6.015346e-04 -9.861932e-02
2.699334e-01 -5.814443e-04 -9.627676e-02
3.603558e-01 -6.111755e-04 -9.993452e-02
4.526754e-01 -6.065714e-04 -9.965402e-02
5.453103e-01 -6.460363e-04 -1.028551e-01
6.424549e-01 -6.767138e-04 -1.057768e-01
7.415461e-01 -7.117020e-04 -1.086523e-01
8.454904e-01 -7.636291e-04 -1.131946e-01