# vtk DataFile Version 3.0
vtk output
ASCII
DATASET UNSTRUCTURED_GRID
POINTS 11767 float
0.000000e+00 0.000000e+00 0.000000e+00
1.460000e-02 0.000000e+00 0.000000e+00
2.920000e-02 0.000000e+00 0.000000e+00
4.380000e-02 0.000000e+00 0.000000e+00
5.840000e-02 0.000000e+00 0.000000e+00
7.300000e-02 0.000000e+00 0.000000e+00
8.760000e-02 0.000000e+00 0.000000e+00
1.022000e-01 0.000000e+00 0.000000e+00
1.168000e-01 0.000000e+00 0.000000e+00
1.314000e-01 0.000000e+00 0.000000e+00
1.460000e-01 0.000000e+00 0.000000e+00
1.606000e-01 0.000000e+00 0.000000e+00
1.752000e-01 0.000000e+00 0.000000e+00
1.898000e-01 0.000000e+00 0.000000e+00
2.044000e-01 0.000000e+00 0.000000e+00
2.190000e-01 0.000000e+00 0.000000e+00
2.336000e-01 0.000000e+00 0.000000e+00
2.482000e-01 0.000000e+00 0.000000e+00
2.628000e-01 0.000000e+00 0.000000e+00
2.774000e-01 0.000000e+00 0.000000e+00
2.920000e-01 0.000000e+00 0.000000e+00
3.066000e-01 0.000000e+00 0.000000e+00
3.212000e-01 0.000000e+00 0.000000e+00
3.358000e-01 0.000000e+00 0.000000e+00
3.504000e-01 0.000000e+00 0.000000e+00
3.650000e-01 0.000000e+00 0.000000e+00
3.796000e-01 0.000000e+00 0.000000e+00
3.942000e-01 0.000000e+00 0.000000e+00
4.088000e-01 0.000000e+00 0.000000e+00
4.234000e-01 0.000000e+00 0.000000e+00
4.380000e-01 0.000000e+00 0.000000e+00
4.526000e-01 0.000000e+00 0.000000e+00
4.672000e-01 0.000000e+00 0.000000e+00
4.818000e-01 0.000000e+00 0.000000e+00
4.964000e-01 0.000000e+00 0.000000e+00
5.110000e-01 0.000000e+00 0.000000e+00
5.256000e-01 0.000000e+00 0.000000e+00
5.402000e-01 0.000000e+00 0.000000e+00
5.548000e-01 0.000000e+00 0.000000e+00
5.694000e-01 0.000000e+00 0.000000e+00
5.840000e-01 0.000000e+00 0.000000e+00
0.000000e+00 1.460000e-02 0.000000e+00
1.460000e-02 1.460000e-02 0.000000e+00
2.920000e-02 1.460000e-02 0.000000e+00
4.380000e-02 1.460000e-02 0.000000e+00
5.840000e-02 1.460000e-02 0.000000e+00
7.300000e-02 1.460000e-02 0.000000e+00
8.760000e-02 1.460000e-02 0.000000e+00
1.022000e-01 1.460000e-02 0.000000e+00
1.168000e-01 1.460000e-02 0.000000e+00
1.314000e-01 1.460000e-02 0.000000e+00
1.460000e-01 1.460000e-02 0.000000e+00
1.606000e-01 1.460000e-02 0.000000e+00
1.752000e-01 1.460000e-02 0.000000e+00
1.898000e-01 1.460000e-02 0.000000e+00
2.044000e-01 1.460000e-02 0.000000e+00
2.190000e-01 1.460000e-02 0.000000e+00
2.336000e-01 1.460000e-02 0.000000e+00
2.482000e-01 1.460000e-02 0.000000e+00
2.628000e-01 1.460000e-02 0.000000e+00
2.774000e-01 1.460000e-02 0.000000e+00
2.920000e-01 1.460000e-02 0.000000e+00
3.066000e-01 1.460000e-02 0.000000e+00
3.212000e-01 1.460000e-02 0.000000e+00
3.358000e-01 1.460000e-02 0.000000e+00
3.504000e-01 1.460000e-02 0.000000e+00
3.650000e-01 1.460000e-02 0.000000e+00
3.796000e-01 1.460000e-02 0.000000e+00
3.942000e-01 1.460000e-02 0.000000e+00
4.088000e-01 1.460000e-02 0.000000e+00
4.234000e-01 1.460000e-02 0.000000e+00
4.380000e-01 1.460000e-02 0.000000e+00
4.526000e-01 1.460000e-02 0.000000e+00
4.672000e-01 1.460000e-02 0.000000e+00
4.818000e-01 1.460000e-02 0.000000e+00
4.964000e-01 1.460000e-02 0.000000e+00
5.110000e-01 1.460000e-02 0.000000e+00
5.256000e-01 1.460000e-02 0.000000e+00
5.402000e-01 1.460000e-02 0.000000e+00
5.548000e-01 1.460000e-02 0.000000e+00
5.694000e-01 1.460000e-02 0.000000e+00
5.840000e-01 1.460000e-02 0.000000e+00
0.000000e+00 2.920000e-02 0.000000e+00
1.460000e-02 2.920000e-02 0.000000e+00
2.920000e-02 2.920000e-02 0.000000e+00
4.380000e-02 2.920000e-02 0.000000e+00
5.840000e-02 2.920000e-02 0.000000e+00
7.300000e-02 2.920000e-02 0.000000e+00
8.760000e-02 2.920000e-02 0.000000e+00
1.022000e-01 2.920000e-02 0.000000e+00
1.168000e-01 2.920000e-02 0.000000e+00
1.314000e-01 2.920000e-02 0.000000e+00
1.460000e-01 2.920000e-02 0.000000e+00
1.606000e-01 2.920000e-02 0.000000e+00
1.752000e-01 2.920000e-02 0.000000e+00
1.898000e-01 2.920000e-02 0.000000e+00
2.044000e-01 2.920000e-02 0.000000e+00
2.190000e-01 2.920000e-02 0.000000e+00
2.336000e-01 2.920000e-02 0.000000e+00
2.482000e-01 2.920000e-02 0.000000e+00
2.628000e-01 2.920000e-02 0.000000e+00
2.774000e-01 2.920000e-02 0.000000e+00
2.920000e-01 2.920000e-02 0.000000e+00
3.066000e-01 2.920000e-02 0.000000e+00
3.212000e-01 2.920000e-02 0.000000e+00
3.358000e-01 2.920000e-02 0.000000e+00
3.504000e-01 2.920000e-02 0.000000e+00
3.650000e-01 2.920000e-02 0.000000e+00
3.796000e-01 2.920000e-02 0.000000e+00
3.942000e-01 2.920000e-02 0.000000e+00
4.088000e-01 2.920000e-02 0.000000e+00
4.234000e-01 2.920000e-02 0.000000e+00
4.380000e-01 2.920000e-02 0.000000e+00
4.526000e-01 2.920000e-02 0.000000e+00
4.672000e-01 2.920000e-02 0.000000e+00
4.818000e-01 2.920000e-02 0.000000e+00
4.964000e-01 2.920000e-02 0.000000e+00
5.110000e-01 2.920000e-02 0.000000e+00
5.256000e-01 2.920000e-02 0.000000e+00
5.402000e-01 2.920000e-02 0.000000e+00
5.548000e-01 2.920000e-02 0.000000e+00
5.694000e-01 2.920000e-02 0.000000e+00
5.840000e-01 2.920000e-02 0.000000e+00
0.000000e+00 4.380000e-02 0.000000e+00
1.460000e-02 4.380000e-02 0.000000e+00
2.920000e-02 4.380000e-02 0.000000e+00
4.380000e-02 4.380000e-02 0.000000e+00
5.840000e-02 4.380000e-02 0.000000e+00
7.300000e-02 4.380000e-02 0.000000e+00
8.760000e-02 4.380000e-02 0.000000e+00
1.022000e-01 4.380000e-02 0.000000e+00
1.168000e-01 4.380000e-02 0.000000e+00
1.314000e-01 4.380000e-02 0.000000e+00
1.460000e-01 4.380000e-02 0.000000e+00
1.606000e-01 4.380000e-02 0.000000e+00
1.752000e-01 4.380000e-02 0.000000e+00
1.898000e-01 4.380000e-02 0.000000e+00
2.044000e-01 4.380000e-02 0.000000e+00
2.190000e-01 4.380000e-02 0.000000e+00
2.336000e-01 4.380000e-02 0.000000e+00
2.482000e-01 4.380000e-02 0.000000e+00
2.628000e-01 4.380000e-02 0.000000e+00
2.774000e-01 4.380000e-02 0.000000e+00
2.920000e-01 4.380000e-02 0.000000e+00
3.066000e-01 4.380000e-02 0.000000e+00
3.212000e-01 4.380000e-02 0.000000e+00
3.358000e-01 4.380000e-02 0.000000e+00
3.504000e-01 4.380000e-02 0.000000e+00
3.650000e-01 4.380000e-02 0.000000e+00
3.796000e-01 4.380000e-02 0.000000e+00
3.942000e-01 4.380000e-02 0.000000e+00
4.088000e-01 4.380000e-02 0.000000e+00
4.234000e-01 4.380000e-02 0.000000e+00
4.380000e-01 4.380000e-02 0.000000e+00
4.526000e-01 4.380000e-02 0.000000e+00
4.672000e-01 4.380000e-02 0.000000e+00
4.818000e-01 4.380000e-02 0.000000e+00
4.964000e-01 4.380000e-02 0.000000e+00
5.110000e-01 4.380000e-02 0.000000e+00
5.256000e-01 4.380000e-02 0.000000e+00
5.402000e-01 4.380000e-02 0.000000e+00
5.548000e-01 4.380000e-02 0.000000e+00
5.694000e-01 4.380000e-02 0.000000e+00
5.840000e-01 4.380000e-02 0.000000e+00
0.000000e+00 5.840000e-02 0.000000e+00
1.460000e-02 5.840000e-02 0.000000e+00
2.920000e-02 5.840000e-02 0.000000e+00
4.380000e-02 5.840000e-02 0.000000e+00
5.840000e-02 5.840000e-02 0.000000e+00
7.300000e-02 5.840000e-02 0.000000e+00
8.760000e-02 5.840000e-02 0.000000e+00
1.022000e-01 5.840000e-02 0.000000e+00
1.168000e-01 5.840000e-02 0.000000e+00
1.314000e-01 5.840000e-02 0.000000e+00
1.460000e-01 5.840000e-02 0.000000e+00
1.606000e-01 5.840000e-02 0.000000e+00
1.752000e-01 5.840000e-02 0.000000e+00
1.898000e-01 5.840000e-02 0.000000e+00
2.044000e-01 5.840000e-02 0.000000e+00
2.190000e-01 5.840000e-02 0.000000e+00
2.336000e-01 5.840000e-02 0.000000e+00
2.482000e-01 5.840000e-02 0.000000e+00
2.628000e-01 5.840000e-02 0.000000e+00
2.774000e-01 5.840000e-02 0.000000e+00
2.920000e-01 5.840000e-02 0.000000e+00
3.066000e-01 5.840000e-02 0.000000e+00
3.212000e-01 5.840000e-02 0.000000e+00
3.358000e-01 5.840000e-02 0.000000e+00
3.504000e-01 5.840000e-02 0.000000e+00
3.650000e-01 5.840000e-02 0.000000e+00
3.796000e-01 5.840000e-02 0.000000e+00
3.942000e-01 5.840000e-02 0.000000e+00
4.088000e-01 5.840000e-02 0.000000e+00
4.234000e-01 5.840000e-02 0.000000e+00
4.380000e-01 5.840000e-02 0.000000e+00
4.526000e-01 5.840000e-02 0.000000e+00
4.672000e-01 5.840000e-02 0.000000e+00
4.818000e-01 5.840000e-02 0.000000e+00
4.964000e-01 5.840000e-02 0.000000e+00
5.110000e-01 5.840000e-02 0.000000e+00
5.256000e-01 5.840000e-02 0.000000e+00
5.402000e-01 5.840000e-02 0.000000e+00
5.548000e-01 5.840000e-02 0.000000e+00
5.694000e-01 5.840000e-02 0.000000e+00
5.840000e-01 5.840000e-02 0.000000e+00
0.000000e+00 7.300000e-02 0.000000e+00
1.460000e-02 7.300000e-02 0.000000e+00
2.920000e-02 7.300000e-02 0.000000e+00
4.380000e-02 7.300000e-02 0.000000e+00
5.840000e-02 7.300000e-02 0.000000e+00
7.300000e-02 7.300000e-02 0.000000e+00
8.760000e-02 7.300000e-02 0.000000e+00
1.022000e-01 7.300000e-02 0.000000e+00
1.168000e-01 7.300000e-02 0.000000e+00
1.314000e-01 7.300000e-02 0.000000e+00
1.460000e-01 7.300000e-02 0.000000e+00
1.606000e-01 7.300000e-02 0.000000e+00
1.752000e-01 7.300000e-02 0.000000e+00
1.898000e-01 7.300000e-02 0.000000e+00
2.044000e-01 7.300000e-02 0.000000e+00
2.190000e-01 7.300000e-02 0.000000e+00
2.336000e-01 7.300000e-02 0.000000e+00
2.482000e-01 7.300000e-02 0.000000e+00
2.628000e-01 7.300000e-02 0.000000e+00
2.774000e-01 7.300000e-02 0.000000e+00
2.920000e-01 7.300000e-02 0.000000e+00
3.066000e-01 7.300000e-02 0.000000e+00
3.212000e-01 7.300000e-02 0.000000e+00
3.358000e-01 7.300000e-02 0.000000e+00
3.504000e-01 7.300000e-02 0.000000e+00
3.650000e-01 7.300000e-02 0.000000e+00
3.796000e-01 7.300000e-02 0.000000e+00
3.942000e-01 7.300000e-02 0.000000e+00
4.088000e-01 7.300000e-02 0.000000e+00
4.234000e-01 7.300000e-02 0.000000e+00
4.380000e-01 7.300000e-02 0.000000e+00
4.526000e-01 7.300000e-02 0.000000e+00
4.672000e-01 7.300000e-02 0.000000e+00
4.818000e-01 7.300000e-02 0.000000e+00
4.964000e-01 7.300000e-02 0.000000e+00
5.110000e-01 7.300000e-02 0.000000e+00
5.256000e-01 7.300000e-02 0.000000e+00
5.402000e-01 7.300000e-02 0.000000e+00
5.548000e-01 7.300000e-02 0.000000e+00
5.694000e-01 7.300000e-02 0.000000e+00
5.840000e-01 7.300000e-02 0.000000e+00
0.000000e+00 8.760000e-02 0.000000e+00
1.460000e-02 8.760000e-02 0.000000e+00
2.920000e-02 8.760000e-02 0.000000e+00
4.380000e-02 8.760000e-02 0.000000e+00
5.840000e-02 8.760000e-02 0.000000e+00
7.300000e-02 8.760000e-02 0.000000e+00
8.760000e-02 8.760000e-02 0.000000e+00
1.022000e-01 8.760000e-02 0.000000e+00
[...]
POINT_DATA 11767
VECTORS Velocity float
0.000000e+00 0.000000e+00 0.000000e+00
1.989075e-02 0.000000e+00 0.000000e+00
3.064416e-02 0.000000e+00 0.000000e+00
3.743477e-02 0.000000e+00 0.000000e+00
4.129141e-02 0.000000e+00 0.000000e+00
4.257011e-02 0.000000e+00 0.000000e+00
4.208646e-02 0.000000e+00 0.000000e+00
4.110088e-02 0.000000e+00 0.000000e+00
3.981247e-02 0.000000e+00 0.000000e+00
3.868605e-02 0.000000e+00 0.000000e+00
3.753903e-02 0.000000e+00 0.000000e+00
3.697424e-02 0.000000e+00 0.000000e+00
3.741313e-02 0.000000e+00 0.000000e+00
3.915619e-02 0.000000e+00 0.000000e+00
4.154094e-02 0.000000e+00 0.000000e+00
4.378916e-02 0.000000e+00 0.000000e+00
4.489984e-02 0.000000e+00 0.000000e+00
4.433081e-02 0.000000e+00 0.000000e+00
4.198203e-02 0.000000e+00 0.000000e+00
3.868639e-02 0.000000e+00 0.000000e+00
3.535573e-02 0.000000e+00 0.000000e+00
3.287264e-02 0.000000e+00 0.000000e+00
3.144385e-02 0.000000e+00 0.000000e+00
3.101108e-02 0.000000e+00 0.000000e+00
3.108894e-02 0.000000e+00 0.000000e+00
3.159413e-02 0.000000e+00 0.000000e+00
3.237772e-02 0.000000e+00 0.000000e+00
3.373254e-02 0.000000e+00 0.000000e+00
3.555936e-02 0.000000e+00 0.000000e+00
3.817046e-02 0.000000e+00 0.000000e+00
4.128317e-02 0.000000e+00 0.000000e+00
4.491748e-02 0.000000e+00 0.000000e+00
4.844409e-02 0.000000e+00 0.000000e+00
5.132535e-02 0.000000e+00 0.000000e+00
5.335521e-02 0.000000e+00 0.000000e+00
5.417981e-02 0.000000e+00 0.000000e+00
5.358319e-02 0.000000e+00 0.000000e+00
5.201702e-02 0.000000e+00 0.000000e+00
4.473643e-02 0.000000e+00 0.000000e+00
3.565720e-02 0.000000e+00 0.000000e+00
0.000000e+00 0.000000e+00 0.000000e+00
0.000000e+00 -4.945829e-14 0.000000e+00
1.989075e-02 -2.425680e-15 0.000000e+00
3.064416e-02 -6.879104e-15 0.000000e+00
3.743477e-02 -3.357064e-15 0.000000e+00
4.129141e-02 -2.078886e-14 0.000000e+00
4.257011e-02 1.036717e-15 0.000000e+00
4.208646e-02 -1.356175e-14 0.000000e+00
4.110088e-02 1.678511e-14 0.000000e+00
3.981247e-02 1.639346e-14 0.000000e+00
3.868605e-02 5.557619e-15 0.000000e+00
3.753903e-02 3.176001e-14 0.000000e+00
3.697424e-02 -2.732636e-14 0.000000e+00
3.741313e-02 5.068282e-14 0.000000e+00
3.915619e-02 -1.899973e-14 0.000000e+00
4.154094e-02 -1.438708e-14 0.000000e+00
4.378916e-02 2.517753e-14 0.000000e+00
4.489984e-02 -1.206949e-14 0.000000e+00
4.433081e-02 3.832071e-14 0.000000e+00
4.198203e-02 3.414253e-14 0.000000e+00
3.868639e-02 2.985168e-14 0.000000e+00
3.535573e-02 6.819861e-14 0.000000e+00
3.287264e-02 3.517618e-14 0.000000e+00
3.144385e-02 5.360532e-14 0.000000e+00
3.101108e-02 8.325231e-15 0.000000e+00
3.108894e-02 2.279313e-14 0.000000e+00
3.159413e-02 3.666681e-14 0.000000e+00
3.237772e-02 -4.942456e-14 0.000000e+00
3.373254e-02 6.014508e-14 0.000000e+00
3.555936e-02 -2.036693e-14 0.000000e+00
3.817046e-02 1.182253e-14 0.000000e+00
4.128317e-02 -9.203789e-15 0.000000e+00
4.491748e-02 5.911860e-15 0.000000e+00
4.844409e-02 -3.933680e-14 0.000000e+00
5.132535e-02 4.390001e-14 0.000000e+00
5.335521e-02 -3.633014e-14 0.000000e+00
5.417981e-02 4.814783e-14 0.000000e+00
5.358319e-02 -4.594120e-14 0.000000e+00
5.201702e-02 4.936626e-14 0.000000e+00
4.473643e-02 -7.323145e-14 0.000000e+00
3.565720e-02 6.459988e-14 0.000000e+00
0.000000e+00 1.430956e-14 0.000000e+00
0.000000e+00 -1.058339e-13 0.000000e+00
1.989075e-02 -1.475530e-15 0.000000e+00
3.064416e-02 3.176065e-15 0.000000e+00
3.743477e-02 2.451365e-15 0.000000e+00
4.129141e-02 -1.475337e-14 0.000000e+00
4.257011e-02 7.400741e-15 0.000000e+00
4.208646e-02 -1.120800e-14 0.000000e+00
4.110088e-02 7.067388e-15 0.000000e+00
3.981247e-02 2.493730e-14 0.000000e+00
3.868605e-02 -8.895316e-15 0.000000e+00
3.753903e-02 5.609949e-14 0.000000e+00
3.697424e-02 -5.016745e-14 0.000000e+00
3.741313e-02 8.595725e-14 0.000000e+00
3.915619e-02 -1.039605e-15 0.000000e+00
4.154094e-02 -4.915160e-15 0.000000e+00
4.378916e-02 5.344710e-14 0.000000e+00
4.489984e-02 2.157192e-14 0.000000e+00
4.433081e-02 5.578449e-14 0.000000e+00
4.198203e-02 7.711709e-14 0.000000e+00
3.868639e-02 5.926912e-14 0.000000e+00
3.535573e-02 1.091233e-13 0.000000e+00
3.287264e-02 4.735013e-14 0.000000e+00
3.144385e-02 9.725886e-14 0.000000e+00
3.101108e-02 1.665583e-14 0.000000e+00
3.108894e-02 4.428286e-14 0.000000e+00
3.159413e-02 5.036728e-14 0.000000e+00
3.237772e-02 -1.391963e-14 0.000000e+00
3.373254e-02 6.474180e-14 0.000000e+00
3.555936e-02 -2.896631e-16 0.000000e+00
3.817046e-02 1.381599e-14 0.000000e+00
4.128317e-02 -3.067852e-15 0.000000e+00
4.491748e-02 1.140079e-14 0.000000e+00
4.844409e-02 -2.255301e-14 0.000000e+00
5.132535e-02 1.900953e-14 0.000000e+00
5.335521e-02 -9.217662e-15 0.000000e+00
5.417981e-02 1.264075e-14 0.000000e+00
5.358319e-02 -1.612952e-14 0.000000e+00
5.201702e-02 1.057647e-14 0.000000e+00
4.473643e-02 -2.088070e-14 0.000000e+00
3.565720e-02 3.463274e-14 0.000000e+00
0.000000e+00 -1.199412e-14 0.000000e+00
0.000000e+00 -6.649839e-14 0.000000e+00
1.989075e-02 1.796886e-14 0.000000e+00
3.064416e-02 1.807753e-14 0.000000e+00
3.743477e-02 9.359629e-15 0.000000e+00
4.129141e-02 -6.391924e-15 0.000000e+00
4.257011e-02 1.375402e-14 0.000000e+00
4.208646e-02 -8.823060e-15 0.000000e+00
4.110088e-02 4.963905e-15 0.000000e+00
3.981247e-02 2.270762e-14 0.000000e+00
3.868605e-02 -1.371037e-14 0.000000e+00
3.753903e-02 6.191945e-14 0.000000e+00
3.697424e-02 -4.451551e-14 0.000000e+00
3.741313e-02 1.016621e-13 0.000000e+00
3.915619e-02 1.483905e-14 0.000000e+00
4.154094e-02 1.176203e-14 0.000000e+00
4.378916e-02 7.965480e-14 0.000000e+00
4.489984e-02 4.414658e-14 0.000000e+00
4.433081e-02 9.336072e-14 0.000000e+00
4.198203e-02 9.517378e-14 0.000000e+00
3.868639e-02 8.236284e-14 0.000000e+00
3.535573e-02 1.261976e-13 0.000000e+00
3.287264e-02 7.490612e-14 0.000000e+00
3.144385e-02 1.096965e-13 0.000000e+00
3.101108e-02 5.078821e-14 0.000000e+00
3.108894e-02 5.241442e-14 0.000000e+00
3.159413e-02 8.123096e-14 0.000000e+00
3.237772e-02 -2.197492e-14 0.000000e+00
3.373254e-02 1.005926e-13 0.000000e+00
3.555936e-02 3.317051e-15 0.000000e+00
3.817046e-02 2.912010e-14 0.000000e+00
4.128317e-02 9.004606e-16 0.000000e+00
4.491748e-02 1.685392e-14 0.000000e+00
4.844409e-02 -1.989825e-14 0.000000e+00
5.132535e-02 3.826936e-14 0.000000e+00
5.335521e-02 -1.153827e-14 0.000000e+00
5.417981e-02 3.903027e-14 0.000000e+00
5.358319e-02 -2.850779e-14 0.000000e+00
5.201702e-02 3.629003e-14 0.000000e+00
4.473643e-02 -5.193991e-14 0.000000e+00
3.565720e-02 6.603753e-14 0.000000e+00
0.000000e+00 -6.198209e-14 0.000000e+00
0.000000e+00 -7.596957e-14 0.000000e+00
1.989075e-02 -4.684827e-15 0.000000e+00
3.064416e-02 2.914725e-15 0.000000e+00
3.743477e-02 -7.941657e-15 0.000000e+00
4.129141e-02 -1.788732e-14 0.000000e+00
4.257011e-02 7.334924e-15 0.000000e+00
4.208646e-02 -8.928740e-15 0.000000e+00
4.110088e-02 7.641399e-15 0.000000e+00
3.981247e-02 2.388719e-14 0.000000e+00
3.868605e-02 -4.750906e-15 0.000000e+00
3.753903e-02 5.857965e-14 0.000000e+00
3.697424e-02 -4.175362e-14 0.000000e+00
3.741313e-02 9.425771e-14 0.000000e+00
3.915619e-02 4.508145e-15 0.000000e+00
4.154094e-02 5.242886e-15 0.000000e+00
4.378916e-02 5.736792e-14 0.000000e+00
4.489984e-02 3.161712e-14 0.000000e+00
4.433081e-02 6.292642e-14 0.000000e+00
4.198203e-02 7.755937e-14 0.000000e+00
3.868639e-02 5.774297e-14 0.000000e+00
3.535573e-02 1.080846e-13 0.000000e+00
3.287264e-02 5.498422e-14 0.000000e+00
3.144385e-02 1.033814e-13 0.000000e+00
3.101108e-02 2.848556e-14 0.000000e+00
3.108894e-02 5.321595e-14 0.000000e+00
3.159413e-02 7.166432e-14 0.000000e+00
3.237772e-02 -7.529884e-15 0.000000e+00
3.373254e-02 8.366326e-14 0.000000e+00
3.555936e-02 4.209996e-15 0.000000e+00
3.817046e-02 2.503943e-14 0.000000e+00
4.128317e-02 1.769040e-15 0.000000e+00
4.491748e-02 1.924784e-14 0.000000e+00
4.844409e-02 -1.946172e-14 0.000000e+00
5.132535e-02 2.716843e-14 0.000000e+00
5.335521e-02 -3.850093e-15 0.000000e+00
5.417981e-02 1.610192e-14 0.000000e+00
5.358319e-02 -1.264513e-14 0.000000e+00
5.201702e-02 9.650820e-15 0.000000e+00
4.473643e-02 -2.512842e-14 0.000000e+00
3.565720e-02 2.702460e-14 0.000000e+00
0.000000e+00 -6.511809e-14 0.000000e+00
0.000000e+00 -9.318376e-14 0.000000e+00
1.989075e-02 -5.025152e-14 0.000000e+00
3.064416e-02 -2.571084e-14 0.000000e+00
3.743477e-02 -1.983873e-14 0.000000e+00
4.129141e-02 -2.929008e-14 0.000000e+00
4.257011e-02 -6.580175e-15 0.000000e+00
4.208646e-02 -1.831072e-14 0.000000e+00
4.110088e-02 1.071661e-14 0.000000e+00
3.981247e-02 1.394467e-14 0.000000e+00
3.868605e-02 1.553175e-15 0.000000e+00
3.753903e-02 2.754425e-14 0.000000e+00
3.697424e-02 -2.578311e-14 0.000000e+00
3.741313e-02 5.091607e-14 0.000000e+00
3.915619e-02 -2.164680e-14 0.000000e+00
4.154094e-02 -1.398149e-14 0.000000e+00
4.378916e-02 2.318808e-14 0.000000e+00
4.489984e-02 -1.089136e-14 0.000000e+00
4.433081e-02 3.515639e-14 0.000000e+00
4.198203e-02 2.916104e-14 0.000000e+00
3.868639e-02 2.064175e-14 0.000000e+00
3.535573e-02 5.286202e-14 0.000000e+00
3.287264e-02 3.083088e-14 0.000000e+00
3.144385e-02 4.117363e-14 0.000000e+00
3.101108e-02 8.571673e-15 0.000000e+00
3.108894e-02 1.649333e-14 0.000000e+00
3.159413e-02 3.587707e-14 0.000000e+00
3.237772e-02 -5.746145e-14 0.000000e+00
3.373254e-02 5.583344e-14 0.000000e+00
3.555936e-02 -2.637679e-14 0.000000e+00
3.817046e-02 2.152279e-15 0.000000e+00
4.128317e-02 -2.410088e-14 0.000000e+00
4.491748e-02 -2.763635e-15 0.000000e+00
4.844409e-02 -5.026523e-14 0.000000e+00
5.132535e-02 3.642667e-14 0.000000e+00
5.335521e-02 -4.069365e-14 0.000000e+00
5.417981e-02 4.220717e-14 0.000000e+00
5.358319e-02 -4.964589e-14 0.000000e+00
5.201702e-02 4.636989e-14 0.000000e+00
4.473643e-02 -8.209014e-14 0.000000e+00
3.565720e-02 7.383917e-14 0.000000e+00
0.000000e+00 3.732260e-14 0.000000e+00
0.000000e+00 0.000000e+00 0.000000e+00
1.989075e-02 0.000000e+00 0.000000e+00
3.064416e-02 0.000000e+00 0.000000e+00
3.743477e-02 0.000000e+00 0.000000e+00
4.129141e-02 0.000000e+00 0.000000e+00
4.257011e-02 0.000000e+00 0.000000e+00
4.208646e-02 0.000000e+00 0.000000e+00
4.110088e-02 0.000000e+00 0.000000e+00
3.981247e-02 0.000000e+00 0.000000e+00
3.868605e-02 0.000000e+00 0.000000e+00
3.753903e-02 0.000000e+00 0.000000e+00
3.697424e-02 0.000000e+00 0.000000e+00
3.741313e-02 0.000000e+00 0.000000e+00
3.915619e-02 0.000000e+00 0.000000e+00
4.154094e-02 0.000000e+00 0.000000e+00
4.378916e-02 0.000000e+00 0.000000e+00
4.489984e-02 0.000000e+00 0.000000e+00
4.433081e-02 0.000000e+00 0.000000e+00
4.198203e-02 0.000000e+00 0.000000e+00
3.868639e-02 0.000000e+00 0.000000e+00
3.535573e-02 0.000000e+00 0.000000e+00
3.287264e-02 0.000000e+00 0.000000e+00
3.144385e-02 0.000000e+00 0.000000e+00
3.101108e-02 0.000000e+00 0.000000e+00
3.108894e-02 0.000000e+00 0.000000e+00
3.159413e-02 0.000000e+00 0.000000e+00
3.237772e-02 0.000000e+00 0.000000e+00
3.373254e-02 0.000000e+00 0.000000e+00
3.555936e-02 0.000000e+00 0.000000e+00
3.817046e-02 0.000000e+00 0.000000e+00
4.128317e-02 0.000000e+00 0.000000e+00
4.491748e-02 0.000000e+00 0.000000e+00
4.844409e-02 0.000000e+00 0.000000e+00
5.132535e-02 0.000000e+00 0.000000e+00
5.335521e-02 0.000000e+00 0.000000e+00
5.417981e-02 0.000000e+00 0.000000e+00
5.358319e-02 0.000000e+00 0.000000e+00
5.201702e-02 0.000000e+00 0.000000e+00
4.473643e-02 0.000000e+00 0.000000e+00
3.565720e-02 0.000000e+00 0.000000e+00
0.000000e+00 0.000000e+00 0.000000e+00
0.000000e+00 0.000000e+00 -1.835302e-02
3.821059e-03 0.000000e+00 -1.427758e-02
8.346880e-03 0.000000e+00 -8.937044e-03
1.014540e-02 0.000000e+00 -6.131401e-03
9.392949e-03 0.000000e+00 -3.573111e-03
7.380222e-03 0.000000e+00 -1.730009e-03
4.164315e-03 0.000000e+00 -4.860516e-04
-8.768284e-04 0.000000e+00 2.669290e-04
-7.021723e-03 0.000000e+00 5.772627e-04
-1.358223e-02 0.000000e+00 4.123313e-04
-1.901044e-02 0.000000e+00 -2.053323e-04
-2.284619e-02 0.000000e+00 -1.397010e-03
-2.448956e-02 0.000000e+00 -2.951820e-03
-2.422348e-02 0.000000e+00 -4.249209e-03
-2.245471e-02 0.000000e+00 -4.799067e-03
-2.005424e-02 0.000000e+00 -4.439462e-03
-1.781682e-02 0.000000e+00 -3.237528e-03
-1.661394e-02 0.000000e+00 -1.560481e-03
-1.680257e-02 0.000000e+00 -1.123160e-04
-1.832704e-02 0.000000e+00 6.068956e-04
-2.073073e-02 0.000000e+00 4.615414e-04
-2.324676e-02 0.000000e+00 -3.180280e-04
-2.520867e-02 0.000000e+00 -1.318626e-03
-2.624339e-02 0.000000e+00 -2.143911e-03
-2.632408e-02 0.000000e+00 -2.768687e-03
-2.542672e-02 0.000000e+00 -3.284667e-03
-2.368072e-02 0.000000e+00 -3.868321e-03
-2.104865e-02 0.000000e+00 -4.480505e-03
-1.767603e-02 0.000000e+00 -5.189420e-03
-1.342506e-02 0.000000e+00 -5.893497e-03
-8.515346e-03 0.000000e+00 -6.498686e-03
-2.835763e-03 0.000000e+00 -6.861310e-03
3.052817e-03 0.000000e+00 -6.629450e-03
9.001677e-03 0.000000e+00 -5.964791e-03
1.398982e-02 0.000000e+00 -4.979916e-03
1.770400e-02 0.000000e+00 -3.246851e-03
1.932232e-02 0.000000e+00 -2.569227e-03
1.934281e-02 0.000000e+00 1.441398e-03
1.656122e-02 0.000000e+00 2.442693e-03
1.145062e-02 0.000000e+00 1.458319e-02
0.000000e+00 0.000000e+00 3.037774e-02
0.000000e+00 1.688893e-14 -1.835302e-02
3.821059e-03 -1.475782e-15 -1.427758e-02
8.346880e-03 -1.267784e-15 -8.937044e-03
1.014540e-02 1.813310e-14 -6.131401e-03
9.392949e-03 -2.471534e-15 -3.573111e-03
7.380222e-03 1.034026e-14 -1.730009e-03
4.164315e-03 -1.450905e-14 -4.860516e-04
-8.768284e-04 -2.034609e-15 2.669290e-04
-7.021723e-03 -2.766055e-14 5.772627e-04
-1.358223e-02 -6.822121e-15 4.123313e-04
-1.901044e-02 -1.521713e-14 -2.053323e-04
-2.284619e-02 4.855921e-15 -1.397010e-03
-2.448956e-02 1.932293e-14 -2.951820e-03
-2.422348e-02 -4.097187e-15 -4.249209e-03
-2.245471e-02 7.542526e-14 -4.799067e-03
-2.005424e-02 1.999314e-14 -4.439462e-03
-1.781682e-02 5.513749e-14 -3.237528e-03
-1.661394e-02 1.082733e-13 -1.560481e-03
-1.680257e-02 9.235215e-14 -1.123160e-04
-1.832704e-02 1.362787e-13 6.068956e-04
-2.073073e-02 1.523773e-13 4.615414e-04
-2.324676e-02 1.206230e-13 -3.180280e-04
-2.520867e-02 1.406504e-13 -1.318626e-03
-2.624339e-02 8.361352e-14 -2.143911e-03
-2.632408e-02 1.303945e-13 -2.768687e-03
-2.542672e-02 5.490739e-14 -3.284667e-03
-2.368072e-02 7.881194e-14 -3.868321e-03
-2.104865e-02 6.264577e-14 -4.480505e-03
-1.767603e-02 3.189007e-14 -5.189420e-03
-1.342506e-02 4.118537e-14 -5.893497e-03
-8.515346e-03 1.060849e-14 -6.498686e-03
-2.835763e-03 9.567731e-16 -6.861310e-03
3.052817e-03 4.186291e-15 -6.629450e-03
9.001677e-03 4.789393e-14 -5.964791e-03
1.398982e-02 -2.057395e-14 -4.979916e-03
1.770400e-02 4.578518e-14 -3.246851e-03
1.932232e-02 -4.491112e-14 -2.569227e-03
1.934281e-02 4.428401e-14 1.441398e-03
1.656122e-02 -9.119493e-14 2.442693e-03
1.145062e-02 7.365751e-14 1.458319e-02
0.000000e+00 -1.110166e-14 3.037774e-02
0.000000e+00 -2.449275e-16 -1.835302e-02
3.821059e-03 -3.003601e-14 -1.427758e-02
8.346880e-03 -2.375414e-14 -8.937044e-03
1.014540e-02 3.489992e-15 -6.131401e-03
9.392949e-03 -2.360329e-14 -3.573111e-03
7.380222e-03 9.320913e-15 -1.730009e-03
4.164315e-03 -1.402299e-14 -4.860516e-04
-8.768284e-04 1.526532e-14 2.669290e-04
-7.021723e-03 -1.189714e-14 5.772627e-04
-1.358223e-02 1.546000e-14 4.123313e-04
-1.901044e-02 5.299612e-15 -2.053323e-04
-2.284619e-02 2.354822e-14 -1.397010e-03
-2.448956e-02 5.249243e-14 -2.951820e-03
-2.422348e-02 3.344429e-16 -4.249209e-03
-2.245471e-02 1.186391e-13 -4.799067e-03
-2.005424e-02 4.227764e-14 -4.439462e-03
-1.781682e-02 7.862835e-14 -3.237528e-03
-1.661394e-02 1.323416e-13 -1.560481e-03
-1.680257e-02 1.224635e-13 -1.123160e-04
-1.832704e-02 1.633344e-13 6.068956e-04
-2.073073e-02 1.987892e-13 4.615414e-04
-2.324676e-02 1.534263e-13 -3.180280e-04
-2.520867e-02 1.965935e-13 -1.318626e-03
-2.624339e-02 1.009863e-13 -2.143911e-03
-2.632408e-02 1.800193e-13 -2.768687e-03
-2.542672e-02 7.752125e-14 -3.284667e-03
-2.368072e-02 1.183239e-13 -3.868321e-03
-2.104865e-02 7.184607e-14 -4.480505e-03
-1.767603e-02 5.592084e-14 -5.189420e-03
-1.342506e-02 5.224911e-14 -5.893497e-03
-8.515346e-03 2.650711e-14 -6.498686e-03
-2.835763e-03 1.906665e-14 -6.861310e-03
3.052817e-03 -3.110153e-15 -6.629450e-03
9.001677e-03 5.028431e-14 -5.964791e-03
1.398982e-02 -1.909359e-14 -4.979916e-03
1.770400e-02 1.864677e-14 -3.246851e-03
1.932232e-02 -1.468636e-14 -2.569227e-03
1.934281e-02 1.305849e-14 1.441398e-03
1.656122e-02 -4.068634e-14 2.442693e-03
1.145062e-02 3.459899e-14 1.458319e-02
0.000000e+00 1.870938e-14 3.037774e-02
0.000000e+00 1.199942e-14 -1.835302e-02
3.821059e-03 -3.164085e-14 -1.427758e-02
8.346880e-03 -3.787109e-14 -8.937044e-03
1.014540e-02 -9.446280e-15 -6.131401e-03
9.392949e-03 -3.474402e-14 -3.573111e-03
7.380222e-03 6.443057e-15 -1.730009e-03
4.164315e-03 -1.472930e-14 -4.860516e-04
-8.768284e-04 2.262360e-14 2.669290e-04
-7.021723e-03 -2.551602e-15 5.772627e-04
-1.358223e-02 3.119650e-14 4.123313e-04
-1.901044e-02 2.751635e-14 -2.053323e-04
-2.284619e-02 3.414031e-14 -1.397010e-03
-2.448956e-02 6.161858e-14 -2.951820e-03
-2.422348e-02 1.011354e-14 -4.249209e-03
-2.245471e-02 1.321684e-13 -4.799067e-03
-2.005424e-02 5.146440e-14 -4.439462e-03
-1.781682e-02 8.737944e-14 -3.237528e-03
-1.661394e-02 1.306042e-13 -1.560481e-03
-1.680257e-02 1.037056e-13 -1.123160e-04
-1.832704e-02 1.518008e-13 6.068956e-04
-2.073073e-02 1.835780e-13 4.615414e-04
-2.324676e-02 1.410262e-13 -3.180280e-04
-2.520867e-02 1.914350e-13 -1.318626e-03
-2.624339e-02 9.361099e-14 -2.143911e-03
-2.632408e-02 1.784365e-13 -2.768687e-03
-2.542672e-02 7.441651e-14 -3.284667e-03
-2.368072e-02 1.148374e-13 -3.868321e-03
-2.104865e-02 7.938684e-14 -4.480505e-03
-1.767603e-02 4.553729e-14 -5.189420e-03
-1.342506e-02 6.144292e-14 -5.893497e-03
-8.515346e-03 1.389271e-14 -6.498686e-03
-2.835763e-03 2.665885e-14 -6.861310e-03
3.052817e-03 -4.283898e-15 -6.629450e-03
9.001677e-03 7.034256e-14 -5.964791e-03
1.398982e-02 -2.633781e-14 -4.979916e-03
1.770400e-02 3.820163e-14 -3.246851e-03
1.932232e-02 -4.870778e-14 -2.569227e-03
1.934281e-02 3.045990e-14 1.441398e-03
1.656122e-02 -9.414612e-14 2.442693e-03
1.145062e-02 7.653140e-14 1.458319e-02
0.000000e+00 -5.676956e-15 3.037774e-02
0.000000e+00 -1.648435e-15 -1.835302e-02
3.821059e-03 -3.390256e-14 -1.427758e-02
8.346880e-03 -3.041696e-14 -8.937044e-03
1.014540e-02 -5.652885e-15 -6.131401e-03
9.392949e-03 -1.890191e-14 -3.573111e-03
7.380222e-03 1.145776e-14 -1.730009e-03
4.164315e-03 -1.342313e-14 -4.860516e-04
-8.768284e-04 1.435622e-14 2.669290e-04
-7.021723e-03 -5.552990e-16 5.772627e-04
-1.358223e-02 2.527156e-14 4.123313e-04
-1.901044e-02 1.741692e-14 -2.053323e-04
-2.284619e-02 3.017072e-14 -1.397010e-03
-2.448956e-02 4.854649e-14 -2.951820e-03
-2.422348e-02 2.950986e-15 -4.249209e-03
-2.245471e-02 1.172883e-13 -4.799067e-03
-2.005424e-02 3.797036e-14 -4.439462e-03
-1.781682e-02 7.351427e-14 -3.237528e-03
-1.661394e-02 1.122744e-13 -1.560481e-03
-1.680257e-02 9.489033e-14 -1.123160e-04
-1.832704e-02 1.307725e-13 6.068956e-04
-2.073073e-02 1.657627e-13 4.615414e-04
-2.324676e-02 1.233284e-13 -3.180280e-04
-2.520867e-02 1.711125e-13 -1.318626e-03
-2.624339e-02 8.101216e-14 -2.143911e-03
-2.632408e-02 1.678667e-13 -2.768687e-03
-2.542672e-02 7.014952e-14 -3.284667e-03
-2.368072e-02 1.123846e-13 -3.868321e-03
-2.104865e-02 7.361007e-14 -4.480505e-03
-1.767603e-02 4.806995e-14 -5.189420e-03
-1.342506e-02 5.686871e-14 -5.893497e-03
-8.515346e-03 2.612150e-14 -6.498686e-03
-2.835763e-03 3.069358e-14 -6.861310e-03
3.052817e-03 -4.154912e-15 -6.629450e-03
9.001677e-03 5.622691e-14 -5.964791e-03
1.398982e-02 -2.604378e-14 -4.979916e-03
1.770400e-02 1.970277e-14 -3.246851e-03
1.932232e-02 -2.435125e-14 -2.569227e-03
1.934281e-02 1.305170e-14 1.441398e-03
1.656122e-02 -4.160782e-14 2.442693e-03
1.145062e-02 3.368944e-14 1.458319e-02
0.000000e+00 3.421172e-15 3.037774e-02
0.000000e+00 -2.583925e-14 -1.835302e-02
3.821059e-03 -4.032022e-14 -1.427758e-02
8.346880e-03 -1.716537e-14 -8.937044e-03
1.014540e-02 6.852125e-15 -6.131401e-03
9.392949e-03 -6.950684e-15 -3.573111e-03
7.380222e-03 1.526769e-14 -1.730009e-03
4.164315e-03 -8.178185e-15 -4.860516e-04
-8.768284e-04 6.169908e-15 2.669290e-04
-7.021723e-03 -2.149304e-14 5.772627e-04