# vtk DataFile Version 3.0
vtk output
ASCII
DATASET UNSTRUCTURED_GRID
POINTS 11767 float
0.000000e+00 0.000000e+00 0.000000e+00
1.460000e-02 0.000000e+00 0.000000e+00
2.920000e-02 0.000000e+00 0.000000e+00
4.380000e-02 0.000000e+00 0.000000e+00
5.840000e-02 0.000000e+00 0.000000e+00
7.300000e-02 0.000000e+00 0.000000e+00
8.760000e-02 0.000000e+00 0.000000e+00
1.022000e-01 0.000000e+00 0.000000e+00
1.168000e-01 0.000000e+00 0.000000e+00
1.314000e-01 0.000000e+00 0.000000e+00
1.460000e-01 0.000000e+00 0.000000e+00
1.606000e-01 0.000000e+00 0.000000e+00
1.752000e-01 0.000000e+00 0.000000e+00
1.898000e-01 0.000000e+00 0.000000e+00
2.044000e-01 0.000000e+00 0.000000e+00
2.190000e-01 0.000000e+00 0.000000e+00
2.336000e-01 0.000000e+00 0.000000e+00
2.482000e-01 0.000000e+00 0.000000e+00
2.628000e-01 0.000000e+00 0.000000e+00
2.774000e-01 0.000000e+00 0.000000e+00
2.920000e-01 0.000000e+00 0.000000e+00
3.066000e-01 0.000000e+00 0.000000e+00
3.212000e-01 0.000000e+00 0.000000e+00
3.358000e-01 0.000000e+00 0.000000e+00
3.504000e-01 0.000000e+00 0.000000e+00
3.650000e-01 0.000000e+00 0.000000e+00
3.796000e-01 0.000000e+00 0.000000e+00
3.942000e-01 0.000000e+00 0.000000e+00
4.088000e-01 0.000000e+00 0.000000e+00
4.234000e-01 0.000000e+00 0.000000e+00
4.380000e-01 0.000000e+00 0.000000e+00
4.526000e-01 0.000000e+00 0.000000e+00
4.672000e-01 0.000000e+00 0.000000e+00
4.818000e-01 0.000000e+00 0.000000e+00
4.964000e-01 0.000000e+00 0.000000e+00
5.110000e-01 0.000000e+00 0.000000e+00
5.256000e-01 0.000000e+00 0.000000e+00
5.402000e-01 0.000000e+00 0.000000e+00
5.548000e-01 0.000000e+00 0.000000e+00
5.694000e-01 0.000000e+00 0.000000e+00
5.840000e-01 0.000000e+00 0.000000e+00
0.000000e+00 1.460000e-02 0.000000e+00
1.460000e-02 1.460000e-02 0.000000e+00
2.920000e-02 1.460000e-02 0.000000e+00
4.380000e-02 1.460000e-02 0.000000e+00
5.840000e-02 1.460000e-02 0.000000e+00
7.300000e-02 1.460000e-02 0.000000e+00
8.760000e-02 1.460000e-02 0.000000e+00
1.022000e-01 1.460000e-02 0.000000e+00
1.168000e-01 1.460000e-02 0.000000e+00
1.314000e-01 1.460000e-02 0.000000e+00
1.460000e-01 1.460000e-02 0.000000e+00
1.606000e-01 1.460000e-02 0.000000e+00
1.752000e-01 1.460000e-02 0.000000e+00
1.898000e-01 1.460000e-02 0.000000e+00
2.044000e-01 1.460000e-02 0.000000e+00
2.190000e-01 1.460000e-02 0.000000e+00
2.336000e-01 1.460000e-02 0.000000e+00
2.482000e-01 1.460000e-02 0.000000e+00
2.628000e-01 1.460000e-02 0.000000e+00
2.774000e-01 1.460000e-02 0.000000e+00
2.920000e-01 1.460000e-02 0.000000e+00
3.066000e-01 1.460000e-02 0.000000e+00
3.212000e-01 1.460000e-02 0.000000e+00
3.358000e-01 1.460000e-02 0.000000e+00
3.504000e-01 1.460000e-02 0.000000e+00
3.650000e-01 1.460000e-02 0.000000e+00
3.796000e-01 1.460000e-02 0.000000e+00
3.942000e-01 1.460000e-02 0.000000e+00
4.088000e-01 1.460000e-02 0.000000e+00
4.234000e-01 1.460000e-02 0.000000e+00
4.380000e-01 1.460000e-02 0.000000e+00
4.526000e-01 1.460000e-02 0.000000e+00
4.672000e-01 1.460000e-02 0.000000e+00
4.818000e-01 1.460000e-02 0.000000e+00
4.964000e-01 1.460000e-02 0.000000e+00
5.110000e-01 1.460000e-02 0.000000e+00
5.256000e-01 1.460000e-02 0.000000e+00
5.402000e-01 1.460000e-02 0.000000e+00
5.548000e-01 1.460000e-02 0.000000e+00
5.694000e-01 1.460000e-02 0.000000e+00
5.840000e-01 1.460000e-02 0.000000e+00
0.000000e+00 2.920000e-02 0.000000e+00
1.460000e-02 2.920000e-02 0.000000e+00
2.920000e-02 2.920000e-02 0.000000e+00
4.380000e-02 2.920000e-02 0.000000e+00
5.840000e-02 2.920000e-02 0.000000e+00
7.300000e-02 2.920000e-02 0.000000e+00
8.760000e-02 2.920000e-02 0.000000e+00
1.022000e-01 2.920000e-02 0.000000e+00
1.168000e-01 2.920000e-02 0.000000e+00
1.314000e-01 2.920000e-02 0.000000e+00
1.460000e-01 2.920000e-02 0.000000e+00
1.606000e-01 2.920000e-02 0.000000e+00
1.752000e-01 2.920000e-02 0.000000e+00
1.898000e-01 2.920000e-02 0.000000e+00
2.044000e-01 2.920000e-02 0.000000e+00
2.190000e-01 2.920000e-02 0.000000e+00
2.336000e-01 2.920000e-02 0.000000e+00
2.482000e-01 2.920000e-02 0.000000e+00
2.628000e-01 2.920000e-02 0.000000e+00
2.774000e-01 2.920000e-02 0.000000e+00
2.920000e-01 2.920000e-02 0.000000e+00
3.066000e-01 2.920000e-02 0.000000e+00
3.212000e-01 2.920000e-02 0.000000e+00
3.358000e-01 2.920000e-02 0.000000e+00
3.504000e-01 2.920000e-02 0.000000e+00
3.650000e-01 2.920000e-02 0.000000e+00
3.796000e-01 2.920000e-02 0.000000e+00
3.942000e-01 2.920000e-02 0.000000e+00
4.088000e-01 2.920000e-02 0.000000e+00
4.234000e-01 2.920000e-02 0.000000e+00
4.380000e-01 2.920000e-02 0.000000e+00
4.526000e-01 2.920000e-02 0.000000e+00
4.672000e-01 2.920000e-02 0.000000e+00
4.818000e-01 2.920000e-02 0.000000e+00
4.964000e-01 2.920000e-02 0.000000e+00
5.110000e-01 2.920000e-02 0.000000e+00
5.256000e-01 2.920000e-02 0.000000e+00
5.402000e-01 2.920000e-02 0.000000e+00
5.548000e-01 2.920000e-02 0.000000e+00
5.694000e-01 2.920000e-02 0.000000e+00
5.840000e-01 2.920000e-02 0.000000e+00
0.000000e+00 4.380000e-02 0.000000e+00
1.460000e-02 4.380000e-02 0.000000e+00
2.920000e-02 4.380000e-02 0.000000e+00
4.380000e-02 4.380000e-02 0.000000e+00
5.840000e-02 4.380000e-02 0.000000e+00
7.300000e-02 4.380000e-02 0.000000e+00
8.760000e-02 4.380000e-02 0.000000e+00
1.022000e-01 4.380000e-02 0.000000e+00
1.168000e-01 4.380000e-02 0.000000e+00
1.314000e-01 4.380000e-02 0.000000e+00
1.460000e-01 4.380000e-02 0.000000e+00
1.606000e-01 4.380000e-02 0.000000e+00
1.752000e-01 4.380000e-02 0.000000e+00
1.898000e-01 4.380000e-02 0.000000e+00
2.044000e-01 4.380000e-02 0.000000e+00
2.190000e-01 4.380000e-02 0.000000e+00
2.336000e-01 4.380000e-02 0.000000e+00
2.482000e-01 4.380000e-02 0.000000e+00
2.628000e-01 4.380000e-02 0.000000e+00
2.774000e-01 4.380000e-02 0.000000e+00
2.920000e-01 4.380000e-02 0.000000e+00
3.066000e-01 4.380000e-02 0.000000e+00
3.212000e-01 4.380000e-02 0.000000e+00
3.358000e-01 4.380000e-02 0.000000e+00
3.504000e-01 4.380000e-02 0.000000e+00
3.650000e-01 4.380000e-02 0.000000e+00
3.796000e-01 4.380000e-02 0.000000e+00
3.942000e-01 4.380000e-02 0.000000e+00
4.088000e-01 4.380000e-02 0.000000e+00
4.234000e-01 4.380000e-02 0.000000e+00
4.380000e-01 4.380000e-02 0.000000e+00
4.526000e-01 4.380000e-02 0.000000e+00
4.672000e-01 4.380000e-02 0.000000e+00
4.818000e-01 4.380000e-02 0.000000e+00
4.964000e-01 4.380000e-02 0.000000e+00
5.110000e-01 4.380000e-02 0.000000e+00
5.256000e-01 4.380000e-02 0.000000e+00
5.402000e-01 4.380000e-02 0.000000e+00
5.548000e-01 4.380000e-02 0.000000e+00
5.694000e-01 4.380000e-02 0.000000e+00
5.840000e-01 4.380000e-02 0.000000e+00
0.000000e+00 5.840000e-02 0.000000e+00
1.460000e-02 5.840000e-02 0.000000e+00
2.920000e-02 5.840000e-02 0.000000e+00
4.380000e-02 5.840000e-02 0.000000e+00
5.840000e-02 5.840000e-02 0.000000e+00
7.300000e-02 5.840000e-02 0.000000e+00
8.760000e-02 5.840000e-02 0.000000e+00
1.022000e-01 5.840000e-02 0.000000e+00
1.168000e-01 5.840000e-02 0.000000e+00
1.314000e-01 5.840000e-02 0.000000e+00
1.460000e-01 5.840000e-02 0.000000e+00
1.606000e-01 5.840000e-02 0.000000e+00
1.752000e-01 5.840000e-02 0.000000e+00
1.898000e-01 5.840000e-02 0.000000e+00
2.044000e-01 5.840000e-02 0.000000e+00
2.190000e-01 5.840000e-02 0.000000e+00
2.336000e-01 5.840000e-02 0.000000e+00
2.482000e-01 5.840000e-02 0.000000e+00
2.628000e-01 5.840000e-02 0.000000e+00
2.774000e-01 5.840000e-02 0.000000e+00
2.920000e-01 5.840000e-02 0.000000e+00
3.066000e-01 5.840000e-02 0.000000e+00
3.212000e-01 5.840000e-02 0.000000e+00
3.358000e-01 5.840000e-02 0.000000e+00
3.504000e-01 5.840000e-02 0.000000e+00
3.650000e-01 5.840000e-02 0.000000e+00
3.796000e-01 5.840000e-02 0.000000e+00
3.942000e-01 5.840000e-02 0.000000e+00
4.088000e-01 5.840000e-02 0.000000e+00
4.234000e-01 5.840000e-02 0.000000e+00
4.380000e-01 5.840000e-02 0.000000e+00
4.526000e-01 5.840000e-02 0.000000e+00
4.672000e-01 5.840000e-02 0.000000e+00
4.818000e-01 5.840000e-02 0.000000e+00
4.964000e-01 5.840000e-02 0.000000e+00
5.110000e-01 5.840000e-02 0.000000e+00
5.256000e-01 5.840000e-02 0.000000e+00
5.402000e-01 5.840000e-02 0.000000e+00
5.548000e-01 5.840000e-02 0.000000e+00
5.694000e-01 5.840000e-02 0.000000e+00
5.840000e-01 5.840000e-02 0.000000e+00
0.000000e+00 7.300000e-02 0.000000e+00
1.460000e-02 7.300000e-02 0.000000e+00
2.920000e-02 7.300000e-02 0.000000e+00
4.380000e-02 7.300000e-02 0.000000e+00
5.840000e-02 7.300000e-02 0.000000e+00
7.300000e-02 7.300000e-02 0.000000e+00
8.760000e-02 7.300000e-02 0.000000e+00
1.022000e-01 7.300000e-02 0.000000e+00
1.168000e-01 7.300000e-02 0.000000e+00
1.314000e-01 7.300000e-02 0.000000e+00
1.460000e-01 7.300000e-02 0.000000e+00
1.606000e-01 7.300000e-02 0.000000e+00
1.752000e-01 7.300000e-02 0.000000e+00
1.898000e-01 7.300000e-02 0.000000e+00
2.044000e-01 7.300000e-02 0.000000e+00
2.190000e-01 7.300000e-02 0.000000e+00
2.336000e-01 7.300000e-02 0.000000e+00
2.482000e-01 7.300000e-02 0.000000e+00
2.628000e-01 7.300000e-02 0.000000e+00
2.774000e-01 7.300000e-02 0.000000e+00
2.920000e-01 7.300000e-02 0.000000e+00
3.066000e-01 7.300000e-02 0.000000e+00
3.212000e-01 7.300000e-02 0.000000e+00
3.358000e-01 7.300000e-02 0.000000e+00
3.504000e-01 7.300000e-02 0.000000e+00
3.650000e-01 7.300000e-02 0.000000e+00
3.796000e-01 7.300000e-02 0.000000e+00
3.942000e-01 7.300000e-02 0.000000e+00
4.088000e-01 7.300000e-02 0.000000e+00
4.234000e-01 7.300000e-02 0.000000e+00
4.380000e-01 7.300000e-02 0.000000e+00
4.526000e-01 7.300000e-02 0.000000e+00
4.672000e-01 7.300000e-02 0.000000e+00
4.818000e-01 7.300000e-02 0.000000e+00
4.964000e-01 7.300000e-02 0.000000e+00
5.110000e-01 7.300000e-02 0.000000e+00
5.256000e-01 7.300000e-02 0.000000e+00
5.402000e-01 7.300000e-02 0.000000e+00
5.548000e-01 7.300000e-02 0.000000e+00
5.694000e-01 7.300000e-02 0.000000e+00
5.840000e-01 7.300000e-02 0.000000e+00
0.000000e+00 8.760000e-02 0.000000e+00
1.460000e-02 8.760000e-02 0.000000e+00
2.920000e-02 8.760000e-02 0.000000e+00
4.380000e-02 8.760000e-02 0.000000e+00
5.840000e-02 8.760000e-02 0.000000e+00
7.300000e-02 8.760000e-02 0.000000e+00
8.760000e-02 8.760000e-02 0.000000e+00
1.022000e-01 8.760000e-02 0.000000e+00
[...]
POINT_DATA 11767
VECTORS Velocity float
0.000000e+00 0.000000e+00 0.000000e+00
2.772922e-02 0.000000e+00 0.000000e+00
5.359625e-02 0.000000e+00 0.000000e+00
8.067560e-02 0.000000e+00 0.000000e+00
1.074973e-01 0.000000e+00 0.000000e+00
1.345826e-01 0.000000e+00 0.000000e+00
1.623281e-01 0.000000e+00 0.000000e+00
1.910599e-01 0.000000e+00 0.000000e+00
2.204610e-01 0.000000e+00 0.000000e+00
2.497800e-01 0.000000e+00 0.000000e+00
2.777438e-01 0.000000e+00 0.000000e+00
3.029291e-01 0.000000e+00 0.000000e+00
3.240492e-01 0.000000e+00 0.000000e+00
3.401524e-01 0.000000e+00 0.000000e+00
3.506467e-01 0.000000e+00 0.000000e+00
3.552676e-01 0.000000e+00 0.000000e+00
3.540266e-01 0.000000e+00 0.000000e+00
3.471648e-01 0.000000e+00 0.000000e+00
3.351299e-01 0.000000e+00 0.000000e+00
3.185837e-01 0.000000e+00 0.000000e+00
2.983841e-01 0.000000e+00 0.000000e+00
2.755504e-01 0.000000e+00 0.000000e+00
2.511504e-01 0.000000e+00 0.000000e+00
2.263275e-01 0.000000e+00 0.000000e+00
2.023435e-01 0.000000e+00 0.000000e+00
1.805340e-01 0.000000e+00 0.000000e+00
1.620190e-01 0.000000e+00 0.000000e+00
1.475148e-01 0.000000e+00 0.000000e+00
1.369656e-01 0.000000e+00 0.000000e+00
1.296310e-01 0.000000e+00 0.000000e+00
1.243146e-01 0.000000e+00 0.000000e+00
1.197908e-01 0.000000e+00 0.000000e+00
1.148678e-01 0.000000e+00 0.000000e+00
1.084008e-01 0.000000e+00 0.000000e+00
9.979346e-02 0.000000e+00 0.000000e+00
8.860714e-02 0.000000e+00 0.000000e+00
7.508511e-02 0.000000e+00 0.000000e+00
6.149348e-02 0.000000e+00 0.000000e+00
4.522609e-02 0.000000e+00 0.000000e+00
3.115688e-02 0.000000e+00 0.000000e+00
0.000000e+00 0.000000e+00 0.000000e+00
0.000000e+00 -7.760078e-14 0.000000e+00
2.772922e-02 1.080103e-13 0.000000e+00
5.359625e-02 -4.271087e-14 0.000000e+00
8.067560e-02 7.305828e-14 0.000000e+00
1.074973e-01 -5.953345e-15 0.000000e+00
1.345826e-01 -6.834822e-15 0.000000e+00
1.623281e-01 5.239238e-14 0.000000e+00
1.910599e-01 -5.397761e-14 0.000000e+00
2.204610e-01 3.062304e-14 0.000000e+00
2.497800e-01 -5.546910e-15 0.000000e+00
2.777438e-01 2.227327e-14 0.000000e+00
3.029291e-01 -3.039743e-14 0.000000e+00
3.240492e-01 1.337477e-14 0.000000e+00
3.401524e-01 -4.618855e-14 0.000000e+00
3.506467e-01 3.241017e-14 0.000000e+00
3.552676e-01 -8.519041e-15 0.000000e+00
3.540266e-01 -6.173494e-16 0.000000e+00
3.471648e-01 -2.062280e-14 0.000000e+00
3.351299e-01 3.931926e-15 0.000000e+00
3.185837e-01 -2.332932e-15 0.000000e+00
2.983841e-01 -3.294064e-14 0.000000e+00
2.755504e-01 3.750032e-14 0.000000e+00
2.511504e-01 -1.086677e-13 0.000000e+00
2.263275e-01 7.185975e-16 0.000000e+00
2.023435e-01 -6.642599e-14 0.000000e+00
1.805340e-01 1.716114e-14 0.000000e+00
1.620190e-01 -9.413397e-14 0.000000e+00
1.475148e-01 -1.411536e-14 0.000000e+00
1.369656e-01 -6.469362e-14 0.000000e+00
1.296310e-01 -8.718660e-14 0.000000e+00
1.243146e-01 -8.882842e-14 0.000000e+00
1.197908e-01 -6.170053e-14 0.000000e+00
1.148678e-01 -9.925157e-15 0.000000e+00
1.084008e-01 -2.444299e-14 0.000000e+00
9.979346e-02 -9.481425e-14 0.000000e+00
8.860714e-02 2.494052e-14 0.000000e+00
7.508511e-02 -6.924704e-14 0.000000e+00
6.149348e-02 3.430590e-14 0.000000e+00
4.522609e-02 -1.423867e-13 0.000000e+00
3.115688e-02 3.352546e-14 0.000000e+00
0.000000e+00 -3.089604e-14 0.000000e+00
0.000000e+00 -1.126185e-13 0.000000e+00
2.772922e-02 1.374657e-13 0.000000e+00
5.359625e-02 -1.209026e-13 0.000000e+00
8.067560e-02 6.113627e-15 0.000000e+00
1.074973e-01 5.210075e-14 0.000000e+00
1.345826e-01 -1.139965e-14 0.000000e+00
1.623281e-01 2.973142e-14 0.000000e+00
1.910599e-01 -5.399430e-14 0.000000e+00
2.204610e-01 7.383378e-14 0.000000e+00
2.497800e-01 -1.414687e-14 0.000000e+00
2.777438e-01 5.812062e-15 0.000000e+00
3.029291e-01 -3.051515e-14 0.000000e+00
3.240492e-01 5.486026e-15 0.000000e+00
3.401524e-01 -7.045047e-14 0.000000e+00
3.506467e-01 1.715492e-14 0.000000e+00
3.552676e-01 7.073766e-15 0.000000e+00
3.540266e-01 7.881922e-15 0.000000e+00
3.471648e-01 -2.532015e-14 0.000000e+00
3.351299e-01 8.172533e-15 0.000000e+00
3.185837e-01 1.024201e-14 0.000000e+00
2.983841e-01 -1.287064e-14 0.000000e+00
2.755504e-01 3.359432e-14 0.000000e+00
2.511504e-01 -1.100212e-13 0.000000e+00
2.263275e-01 1.627425e-14 0.000000e+00
2.023435e-01 -8.635230e-14 0.000000e+00
1.805340e-01 2.204724e-14 0.000000e+00
1.620190e-01 -2.736085e-14 0.000000e+00
1.475148e-01 -9.765338e-14 0.000000e+00
1.369656e-01 -3.794095e-14 0.000000e+00
1.296310e-01 5.066146e-15 0.000000e+00
1.243146e-01 -2.004756e-13 0.000000e+00
1.197908e-01 -6.638830e-14 0.000000e+00
1.148678e-01 -8.003121e-14 0.000000e+00
1.084008e-01 -1.113570e-13 0.000000e+00
9.979346e-02 -5.337448e-14 0.000000e+00
8.860714e-02 1.999424e-15 0.000000e+00
7.508511e-02 3.838979e-14 0.000000e+00
6.149348e-02 3.365057e-14 0.000000e+00
4.522609e-02 -7.925371e-14 0.000000e+00
3.115688e-02 1.570420e-13 0.000000e+00
0.000000e+00 -2.568719e-13 0.000000e+00
0.000000e+00 1.004137e-13 0.000000e+00
2.772922e-02 -9.231000e-14 0.000000e+00
5.359625e-02 1.361134e-13 0.000000e+00
8.067560e-02 -4.247893e-14 0.000000e+00
1.074973e-01 -2.821565e-14 0.000000e+00
1.345826e-01 1.345232e-14 0.000000e+00
1.623281e-01 -9.891421e-15 0.000000e+00
1.910599e-01 1.392069e-14 0.000000e+00
2.204610e-01 1.214802e-14 0.000000e+00
2.497800e-01 -1.562973e-15 0.000000e+00
2.777438e-01 -1.795774e-14 0.000000e+00
3.029291e-01 -3.759549e-14 0.000000e+00
3.240492e-01 3.639904e-14 0.000000e+00
3.401524e-01 -7.540372e-14 0.000000e+00
3.506467e-01 3.838888e-14 0.000000e+00
3.552676e-01 5.448526e-15 0.000000e+00
3.540266e-01 1.471854e-15 0.000000e+00
3.471648e-01 -1.519967e-14 0.000000e+00
3.351299e-01 1.399688e-14 0.000000e+00
3.185837e-01 -2.272541e-15 0.000000e+00
2.983841e-01 9.167143e-15 0.000000e+00
2.755504e-01 -7.761098e-15 0.000000e+00
2.511504e-01 -9.998918e-14 0.000000e+00
2.263275e-01 2.812226e-14 0.000000e+00
2.023435e-01 -1.119945e-13 0.000000e+00
1.805340e-01 6.195484e-14 0.000000e+00
1.620190e-01 -6.936627e-14 0.000000e+00
1.475148e-01 -5.169214e-14 0.000000e+00
1.369656e-01 -1.004468e-13 0.000000e+00
1.296310e-01 1.050336e-13 0.000000e+00
1.243146e-01 -3.171914e-13 0.000000e+00
1.197908e-01 5.779884e-14 0.000000e+00
1.148678e-01 -2.074290e-13 0.000000e+00
1.084008e-01 1.555599e-14 0.000000e+00
9.979346e-02 -1.062760e-13 0.000000e+00
8.860714e-02 3.329540e-14 0.000000e+00
7.508511e-02 1.345554e-14 0.000000e+00
6.149348e-02 2.348823e-14 0.000000e+00
4.522609e-02 -1.128446e-13 0.000000e+00
3.115688e-02 6.865851e-14 0.000000e+00
0.000000e+00 -2.567613e-13 0.000000e+00
0.000000e+00 2.030419e-13 0.000000e+00
2.772922e-02 -1.115401e-13 0.000000e+00
5.359625e-02 3.807864e-14 0.000000e+00
8.067560e-02 4.055040e-14 0.000000e+00
1.074973e-01 -3.653949e-14 0.000000e+00
1.345826e-01 3.091782e-14 0.000000e+00
1.623281e-01 -3.767122e-14 0.000000e+00
1.910599e-01 4.333458e-14 0.000000e+00
2.204610e-01 5.545033e-15 0.000000e+00
2.497800e-01 2.644436e-15 0.000000e+00
2.777438e-01 -2.113811e-15 0.000000e+00
3.029291e-01 4.711919e-16 0.000000e+00
3.240492e-01 2.457208e-14 0.000000e+00
3.401524e-01 -6.300941e-14 0.000000e+00
3.506467e-01 2.036324e-14 0.000000e+00
3.552676e-01 3.387896e-15 0.000000e+00
3.540266e-01 -2.899663e-14 0.000000e+00
3.471648e-01 2.430949e-14 0.000000e+00
3.351299e-01 -1.044892e-14 0.000000e+00
3.185837e-01 1.099881e-14 0.000000e+00
2.983841e-01 2.852056e-14 0.000000e+00
2.755504e-01 -2.218182e-14 0.000000e+00
2.511504e-01 -7.576582e-14 0.000000e+00
2.263275e-01 1.119946e-14 0.000000e+00
2.023435e-01 -1.020007e-13 0.000000e+00
1.805340e-01 5.934686e-14 0.000000e+00
1.620190e-01 -2.617246e-14 0.000000e+00
1.475148e-01 -9.882106e-14 0.000000e+00
1.369656e-01 -3.046919e-14 0.000000e+00
1.296310e-01 4.560610e-14 0.000000e+00
1.243146e-01 -2.154254e-13 0.000000e+00
1.197908e-01 -2.806728e-14 0.000000e+00
1.148678e-01 3.203685e-15 0.000000e+00
1.084008e-01 -8.640713e-14 0.000000e+00
9.979346e-02 -7.859399e-15 0.000000e+00
8.860714e-02 9.878010e-15 0.000000e+00
7.508511e-02 -5.259933e-14 0.000000e+00
6.149348e-02 4.366078e-14 0.000000e+00
4.522609e-02 -3.959545e-14 0.000000e+00
3.115688e-02 8.720845e-14 0.000000e+00
0.000000e+00 -4.721877e-14 0.000000e+00
0.000000e+00 -2.764031e-13 0.000000e+00
2.772922e-02 2.135834e-13 0.000000e+00
5.359625e-02 -1.527354e-13 0.000000e+00
8.067560e-02 3.752669e-14 0.000000e+00
1.074973e-01 2.317581e-14 0.000000e+00
1.345826e-01 -2.875948e-14 0.000000e+00
1.623281e-01 2.068320e-14 0.000000e+00
1.910599e-01 3.407175e-14 0.000000e+00
2.204610e-01 4.345322e-15 0.000000e+00
2.497800e-01 -1.433496e-14 0.000000e+00
2.777438e-01 -1.391080e-14 0.000000e+00
3.029291e-01 9.292520e-15 0.000000e+00
3.240492e-01 2.790922e-14 0.000000e+00
3.401524e-01 -5.884322e-14 0.000000e+00
3.506467e-01 1.004464e-14 0.000000e+00
3.552676e-01 1.248531e-14 0.000000e+00
3.540266e-01 -3.001029e-14 0.000000e+00
3.471648e-01 -2.973000e-16 0.000000e+00
3.351299e-01 -1.224797e-14 0.000000e+00
3.185837e-01 -2.379819e-14 0.000000e+00
2.983841e-01 1.725636e-14 0.000000e+00
2.755504e-01 -3.156171e-14 0.000000e+00
2.511504e-01 -4.991843e-14 0.000000e+00
2.263275e-01 -7.413600e-15 0.000000e+00
2.023435e-01 -4.749514e-15 0.000000e+00
1.805340e-01 -4.580489e-14 0.000000e+00
1.620190e-01 6.261008e-14 0.000000e+00
1.475148e-01 -6.910261e-14 0.000000e+00
1.369656e-01 -6.089047e-14 0.000000e+00
1.296310e-01 2.448390e-14 0.000000e+00
1.243146e-01 -1.213388e-13 0.000000e+00
1.197908e-01 -2.486696e-14 0.000000e+00
1.148678e-01 2.271706e-14 0.000000e+00
1.084008e-01 -5.737937e-14 0.000000e+00
9.979346e-02 2.865115e-14 0.000000e+00
8.860714e-02 1.251353e-14 0.000000e+00
7.508511e-02 -9.703858e-14 0.000000e+00
6.149348e-02 4.213936e-14 0.000000e+00
4.522609e-02 -1.626419e-13 0.000000e+00
3.115688e-02 2.534672e-13 0.000000e+00
0.000000e+00 -1.867829e-13 0.000000e+00
0.000000e+00 0.000000e+00 0.000000e+00
2.772922e-02 0.000000e+00 0.000000e+00
5.359625e-02 0.000000e+00 0.000000e+00
8.067560e-02 0.000000e+00 0.000000e+00
1.074973e-01 0.000000e+00 0.000000e+00
1.345826e-01 0.000000e+00 0.000000e+00
1.623281e-01 0.000000e+00 0.000000e+00
1.910599e-01 0.000000e+00 0.000000e+00
2.204610e-01 0.000000e+00 0.000000e+00
2.497800e-01 0.000000e+00 0.000000e+00
2.777438e-01 0.000000e+00 0.000000e+00
3.029291e-01 0.000000e+00 0.000000e+00
3.240492e-01 0.000000e+00 0.000000e+00
3.401524e-01 0.000000e+00 0.000000e+00
3.506467e-01 0.000000e+00 0.000000e+00
3.552676e-01 0.000000e+00 0.000000e+00
3.540266e-01 0.000000e+00 0.000000e+00
3.471648e-01 0.000000e+00 0.000000e+00
3.351299e-01 0.000000e+00 0.000000e+00
3.185837e-01 0.000000e+00 0.000000e+00
2.983841e-01 0.000000e+00 0.000000e+00
2.755504e-01 0.000000e+00 0.000000e+00
2.511504e-01 0.000000e+00 0.000000e+00
2.263275e-01 0.000000e+00 0.000000e+00
2.023435e-01 0.000000e+00 0.000000e+00
1.805340e-01 0.000000e+00 0.000000e+00
1.620190e-01 0.000000e+00 0.000000e+00
1.475148e-01 0.000000e+00 0.000000e+00
1.369656e-01 0.000000e+00 0.000000e+00
1.296310e-01 0.000000e+00 0.000000e+00
1.243146e-01 0.000000e+00 0.000000e+00
1.197908e-01 0.000000e+00 0.000000e+00
1.148678e-01 0.000000e+00 0.000000e+00
1.084008e-01 0.000000e+00 0.000000e+00
9.979346e-02 0.000000e+00 0.000000e+00
8.860714e-02 0.000000e+00 0.000000e+00
7.508511e-02 0.000000e+00 0.000000e+00
6.149348e-02 0.000000e+00 0.000000e+00
4.522609e-02 0.000000e+00 0.000000e+00
3.115688e-02 0.000000e+00 0.000000e+00
0.000000e+00 0.000000e+00 0.000000e+00
0.000000e+00 0.000000e+00 -2.333049e-02
7.676679e-03 0.000000e+00 -2.379809e-02
2.259952e-02 0.000000e+00 -2.590383e-02
4.210923e-02 0.000000e+00 -2.753695e-02
6.424556e-02 0.000000e+00 -2.798325e-02
8.811186e-02 0.000000e+00 -2.891238e-02
1.137754e-01 0.000000e+00 -3.010075e-02
1.412361e-01 0.000000e+00 -3.128800e-02
1.701561e-01 0.000000e+00 -3.188860e-02
1.995574e-01 0.000000e+00 -3.137787e-02
2.279543e-01 0.000000e+00 -2.937643e-02
2.537001e-01 0.000000e+00 -2.592046e-02
2.753804e-01 0.000000e+00 -2.129312e-02
2.919385e-01 0.000000e+00 -1.586779e-02
3.027037e-01 0.000000e+00 -1.000495e-02
3.073821e-01 0.000000e+00 -4.031247e-03
3.060439e-01 0.000000e+00 1.773538e-03
2.990521e-01 0.000000e+00 7.187531e-03
2.869819e-01 0.000000e+00 1.200378e-02
2.706375e-01 0.000000e+00 1.598849e-02
2.511561e-01 0.000000e+00 1.890377e-02
2.299166e-01 0.000000e+00 2.064980e-02
2.082466e-01 0.000000e+00 2.126502e-02
1.871720e-01 0.000000e+00 2.081792e-02
1.673029e-01 0.000000e+00 1.934041e-02
1.489803e-01 0.000000e+00 1.693740e-02
1.324277e-01 0.000000e+00 1.380602e-02
1.179340e-01 0.000000e+00 1.031892e-02
1.058345e-01 0.000000e+00 7.005987e-03
9.638067e-02 0.000000e+00 4.332650e-03
8.953101e-02 0.000000e+00 2.573504e-03
8.489868e-02 0.000000e+00 1.795597e-03
8.177146e-02 0.000000e+00 2.119850e-03
7.914356e-02 0.000000e+00 3.460732e-03
7.559540e-02 0.000000e+00 5.548057e-03
6.966879e-02 0.000000e+00 8.586567e-03
6.025213e-02 0.000000e+00 1.004070e-02
4.750856e-02 0.000000e+00 1.281980e-02
3.224957e-02 0.000000e+00 1.156991e-02
1.704791e-02 0.000000e+00 1.722799e-02
0.000000e+00 0.000000e+00 2.735925e-02
0.000000e+00 -2.969080e-14 -2.333049e-02
7.676679e-03 4.995933e-14 -2.379809e-02
2.259952e-02 -6.226738e-14 -2.590383e-02
4.210923e-02 -1.309710e-14 -2.753695e-02
6.424556e-02 -4.377532e-15 -2.798325e-02
8.811186e-02 1.574372e-14 -2.891238e-02
1.137754e-01 -1.312724e-14 -3.010075e-02
1.412361e-01 -1.915589e-14 -3.128800e-02
1.701561e-01 1.785283e-14 -3.188860e-02
1.995574e-01 1.639901e-14 -3.137787e-02
2.279543e-01 -1.433063e-14 -2.937643e-02
2.537001e-01 -2.481557e-14 -2.592046e-02
2.753804e-01 5.806510e-15 -2.129312e-02
2.919385e-01 -8.803510e-15 -1.586779e-02
3.027037e-01 2.317116e-14 -1.000495e-02
3.073821e-01 -2.886904e-14 -4.031247e-03
3.060439e-01 9.102308e-15 1.773538e-03
2.990521e-01 -8.402082e-15 7.187531e-03
2.869819e-01 -9.263436e-15 1.200378e-02
2.706375e-01 -9.579362e-15 1.598849e-02
2.511561e-01 -6.107993e-15 1.890377e-02
2.299166e-01 -6.728128e-14 2.064980e-02
2.082466e-01 7.514572e-14 2.126502e-02
1.871720e-01 -5.154290e-15 2.081792e-02
1.673029e-01 -1.426191e-14 1.934041e-02
1.489803e-01 -7.011693e-14 1.693740e-02
1.324277e-01 -1.184405e-13 1.380602e-02
1.179340e-01 8.512667e-14 1.031892e-02
1.058345e-01 -1.193644e-13 7.005987e-03
9.638067e-02 -5.415254e-15 4.332650e-03
8.953101e-02 5.662839e-14 2.573504e-03
8.489868e-02 1.264821e-15 1.795597e-03
8.177146e-02 -8.118470e-14 2.119850e-03
7.914356e-02 5.117831e-14 3.460732e-03
7.559540e-02 1.003051e-13 5.548057e-03
6.966879e-02 -3.116067e-15 8.586567e-03
6.025213e-02 -3.197191e-14 1.004070e-02
4.750856e-02 3.450904e-14 1.281980e-02
3.224957e-02 -1.285226e-14 1.156991e-02
1.704791e-02 5.391906e-14 1.722799e-02
0.000000e+00 -3.360973e-14 2.735925e-02
0.000000e+00 8.174749e-14 -2.333049e-02
7.676679e-03 -8.173914e-14 -2.379809e-02
2.259952e-02 2.050145e-14 -2.590383e-02
4.210923e-02 -9.790113e-15 -2.753695e-02
6.424556e-02 5.987505e-14 -2.798325e-02
8.811186e-02 -9.674618e-15 -2.891238e-02
1.137754e-01 -2.068973e-14 -3.010075e-02
1.412361e-01 -5.348649e-14 -3.128800e-02
1.701561e-01 5.488321e-14 -3.188860e-02
1.995574e-01 -2.721481e-16 -3.137787e-02
2.279543e-01 -2.910361e-14 -2.937643e-02
2.537001e-01 -9.256800e-15 -2.592046e-02
2.753804e-01 4.509375e-15 -2.129312e-02
2.919385e-01 6.943128e-15 -1.586779e-02
3.027037e-01 7.451067e-15 -1.000495e-02
3.073821e-01 -1.701243e-14 -4.031247e-03
3.060439e-01 3.260877e-15 1.773538e-03
2.990521e-01 -2.514092e-14 7.187531e-03
2.869819e-01 -7.754650e-15 1.200378e-02
2.706375e-01 1.250256e-14 1.598849e-02
2.511561e-01 -1.086851e-14 1.890377e-02
2.299166e-01 -1.096121e-13 2.064980e-02
2.082466e-01 1.439265e-13 2.126502e-02
1.871720e-01 -6.739891e-14 2.081792e-02
1.673029e-01 4.263418e-14 1.934041e-02
1.489803e-01 -7.230286e-14 1.693740e-02
1.324277e-01 -8.582177e-14 1.380602e-02
1.179340e-01 3.453796e-14 1.031892e-02
1.058345e-01 4.776602e-15 7.005987e-03
9.638067e-02 -1.497092e-13 4.332650e-03
8.953101e-02 6.676354e-14 2.573504e-03
8.489868e-02 -2.646293e-14 1.795597e-03
8.177146e-02 -8.876625e-14 2.119850e-03
7.914356e-02 6.294575e-14 3.460732e-03
7.559540e-02 7.508975e-14 5.548057e-03
6.966879e-02 -8.562051e-15 8.586567e-03
6.025213e-02 -4.939660e-14 1.004070e-02
4.750856e-02 -1.913720e-14 1.281980e-02
3.224957e-02 -1.147606e-14 1.156991e-02
1.704791e-02 -1.898766e-16 1.722799e-02
0.000000e+00 -8.873273e-15 2.735925e-02
0.000000e+00 -8.733380e-14 -2.333049e-02
7.676679e-03 1.243476e-14 -2.379809e-02
2.259952e-02 -7.639743e-14 -2.590383e-02
4.210923e-02 -4.672003e-14 -2.753695e-02
6.424556e-02 3.049146e-14 -2.798325e-02
8.811186e-02 -2.811593e-15 -2.891238e-02
1.137754e-01 -3.885080e-15 -3.010075e-02
1.412361e-01 -2.720548e-14 -3.128800e-02
1.701561e-01 -7.848335e-15 -3.188860e-02
1.995574e-01 9.105704e-15 -3.137787e-02
2.279543e-01 -2.341878e-14 -2.937643e-02
2.537001e-01 -2.027133e-14 -2.592046e-02
2.753804e-01 1.860779e-14 -2.129312e-02
2.919385e-01 -1.239642e-15 -1.586779e-02
3.027037e-01 9.614209e-15 -1.000495e-02
3.073821e-01 -2.476019e-14 -4.031247e-03
3.060439e-01 1.240868e-14 1.773538e-03
2.990521e-01 -1.336612e-14 7.187531e-03
2.869819e-01 6.185240e-15 1.200378e-02
2.706375e-01 1.791503e-14 1.598849e-02
2.511561e-01 -1.329942e-14 1.890377e-02
2.299166e-01 -7.171620e-14 2.064980e-02
2.082466e-01 1.518847e-13 2.126502e-02
1.871720e-01 -5.268562e-14 2.081792e-02
1.673029e-01 8.464517e-15 1.934041e-02
1.489803e-01 -4.628684e-14 1.693740e-02
1.324277e-01 -1.485208e-13 1.380602e-02
1.179340e-01 1.725371e-13 1.031892e-02
1.058345e-01 2.142454e-14 7.005987e-03
9.638067e-02 -9.028537e-14 4.332650e-03
8.953101e-02 1.080680e-13 2.573504e-03
8.489868e-02 1.630399e-14 1.795597e-03
8.177146e-02 -1.159346e-13 2.119850e-03
7.914356e-02 1.281981e-13 3.460732e-03
7.559540e-02 6.495181e-14 5.548057e-03
6.966879e-02 1.924600e-14 8.586567e-03
6.025213e-02 -8.723858e-14 1.004070e-02
4.750856e-02 -2.317772e-14 1.281980e-02
3.224957e-02 -1.889277e-14 1.156991e-02
1.704791e-02 4.806239e-14 1.722799e-02
0.000000e+00 -5.738907e-14 2.735925e-02
0.000000e+00 -6.984040e-14 -2.333049e-02
7.676679e-03 1.704004e-14 -2.379809e-02
2.259952e-02 -5.475738e-14 -2.590383e-02
4.210923e-02 -2.676139e-14 -2.753695e-02
6.424556e-02 3.816206e-15 -2.798325e-02
8.811186e-02 7.969891e-14 -2.891238e-02
1.137754e-01 -4.567878e-14 -3.010075e-02
1.412361e-01 2.995109e-15 -3.128800e-02
1.701561e-01 -4.227574e-14 -3.188860e-02
1.995574e-01 1.210816e-14 -3.137787e-02
2.279543e-01 -1.193289e-15 -2.937643e-02
2.537001e-01 -3.410490e-15 -2.592046e-02
2.753804e-01 -6.202678e-15 -2.129312e-02
2.919385e-01 3.184124e-15 -1.586779e-02
3.027037e-01 -1.207562e-14 -1.000495e-02
3.073821e-01 -1.358693e-14 -4.031247e-03
3.060439e-01 1.828720e-14 1.773538e-03
2.990521e-01 1.250846e-14 7.187531e-03
2.869819e-01 -1.078367e-14 1.200378e-02
2.706375e-01 2.619479e-14 1.598849e-02
2.511561e-01 -1.909262e-14 1.890377e-02
2.299166e-01 -5.305458e-14 2.064980e-02
2.082466e-01 1.117593e-13 2.126502e-02
1.871720e-01 5.622570e-15 2.081792e-02
1.673029e-01 -3.877371e-14 1.934041e-02
1.489803e-01 -6.063249e-15 1.693740e-02
1.324277e-01 -1.052252e-13 1.380602e-02
1.179340e-01 1.646758e-13 1.031892e-02
1.058345e-01 3.066409e-14 7.005987e-03
9.638067e-02 -1.329377e-13 4.332650e-03
8.953101e-02 9.826801e-14 2.573504e-03
8.489868e-02 2.883069e-15 1.795597e-03
8.177146e-02 -1.767725e-13 2.119850e-03
7.914356e-02 1.311096e-13 3.460732e-03
7.559540e-02 1.462584e-15 5.548057e-03
6.966879e-02 -4.538472e-14 8.586567e-03
6.025213e-02 -5.011995e-14 1.004070e-02
4.750856e-02 -1.907521e-14 1.281980e-02
3.224957e-02 2.088872e-14 1.156991e-02
1.704791e-02 8.633853e-14 1.722799e-02
0.000000e+00 -1.152575e-13 2.735925e-02
0.000000e+00 5.437244e-15 -2.333049e-02
7.676679e-03 -8.708480e-14 -2.379809e-02
2.259952e-02 2.021970e-14 -2.590383e-02
4.210923e-02 -1.575840e-14 -2.753695e-02
6.424556e-02 -1.919311e-15 -2.798325e-02
8.811186e-02 4.622946e-14 -2.891238e-02
1.137754e-01 -4.314073e-14 -3.010075e-02
1.412361e-01 9.534077e-15 -3.128800e-02
1.701561e-01 -2.589781e-14 -3.188860e-02
1.995574e-01 7.654981e-15 -3.137787e-02
2.279543e-01 -6.032285e-15 -2.937643e-02