# vtk DataFile Version 3.0
vtk output
ASCII
DATASET UNSTRUCTURED_GRID
POINTS 11767 float
0.000000e+00 0.000000e+00 0.000000e+00
1.460000e-02 0.000000e+00 0.000000e+00
2.920000e-02 0.000000e+00 0.000000e+00
4.380000e-02 0.000000e+00 0.000000e+00
5.840000e-02 0.000000e+00 0.000000e+00
7.300000e-02 0.000000e+00 0.000000e+00
8.760000e-02 0.000000e+00 0.000000e+00
1.022000e-01 0.000000e+00 0.000000e+00
1.168000e-01 0.000000e+00 0.000000e+00
1.314000e-01 0.000000e+00 0.000000e+00
1.460000e-01 0.000000e+00 0.000000e+00
1.606000e-01 0.000000e+00 0.000000e+00
1.752000e-01 0.000000e+00 0.000000e+00
1.898000e-01 0.000000e+00 0.000000e+00
2.044000e-01 0.000000e+00 0.000000e+00
2.190000e-01 0.000000e+00 0.000000e+00
2.336000e-01 0.000000e+00 0.000000e+00
2.482000e-01 0.000000e+00 0.000000e+00
2.628000e-01 0.000000e+00 0.000000e+00
2.774000e-01 0.000000e+00 0.000000e+00
2.920000e-01 0.000000e+00 0.000000e+00
3.066000e-01 0.000000e+00 0.000000e+00
3.212000e-01 0.000000e+00 0.000000e+00
3.358000e-01 0.000000e+00 0.000000e+00
3.504000e-01 0.000000e+00 0.000000e+00
3.650000e-01 0.000000e+00 0.000000e+00
3.796000e-01 0.000000e+00 0.000000e+00
3.942000e-01 0.000000e+00 0.000000e+00
4.088000e-01 0.000000e+00 0.000000e+00
4.234000e-01 0.000000e+00 0.000000e+00
4.380000e-01 0.000000e+00 0.000000e+00
4.526000e-01 0.000000e+00 0.000000e+00
4.672000e-01 0.000000e+00 0.000000e+00
4.818000e-01 0.000000e+00 0.000000e+00
4.964000e-01 0.000000e+00 0.000000e+00
5.110000e-01 0.000000e+00 0.000000e+00
5.256000e-01 0.000000e+00 0.000000e+00
5.402000e-01 0.000000e+00 0.000000e+00
5.548000e-01 0.000000e+00 0.000000e+00
5.694000e-01 0.000000e+00 0.000000e+00
5.840000e-01 0.000000e+00 0.000000e+00
0.000000e+00 1.460000e-02 0.000000e+00
1.460000e-02 1.460000e-02 0.000000e+00
2.920000e-02 1.460000e-02 0.000000e+00
4.380000e-02 1.460000e-02 0.000000e+00
5.840000e-02 1.460000e-02 0.000000e+00
7.300000e-02 1.460000e-02 0.000000e+00
8.760000e-02 1.460000e-02 0.000000e+00
1.022000e-01 1.460000e-02 0.000000e+00
1.168000e-01 1.460000e-02 0.000000e+00
1.314000e-01 1.460000e-02 0.000000e+00
1.460000e-01 1.460000e-02 0.000000e+00
1.606000e-01 1.460000e-02 0.000000e+00
1.752000e-01 1.460000e-02 0.000000e+00
1.898000e-01 1.460000e-02 0.000000e+00
2.044000e-01 1.460000e-02 0.000000e+00
2.190000e-01 1.460000e-02 0.000000e+00
2.336000e-01 1.460000e-02 0.000000e+00
2.482000e-01 1.460000e-02 0.000000e+00
2.628000e-01 1.460000e-02 0.000000e+00
2.774000e-01 1.460000e-02 0.000000e+00
2.920000e-01 1.460000e-02 0.000000e+00
3.066000e-01 1.460000e-02 0.000000e+00
3.212000e-01 1.460000e-02 0.000000e+00
3.358000e-01 1.460000e-02 0.000000e+00
3.504000e-01 1.460000e-02 0.000000e+00
3.650000e-01 1.460000e-02 0.000000e+00
3.796000e-01 1.460000e-02 0.000000e+00
3.942000e-01 1.460000e-02 0.000000e+00
4.088000e-01 1.460000e-02 0.000000e+00
4.234000e-01 1.460000e-02 0.000000e+00
4.380000e-01 1.460000e-02 0.000000e+00
4.526000e-01 1.460000e-02 0.000000e+00
4.672000e-01 1.460000e-02 0.000000e+00
4.818000e-01 1.460000e-02 0.000000e+00
4.964000e-01 1.460000e-02 0.000000e+00
5.110000e-01 1.460000e-02 0.000000e+00
5.256000e-01 1.460000e-02 0.000000e+00
5.402000e-01 1.460000e-02 0.000000e+00
5.548000e-01 1.460000e-02 0.000000e+00
5.694000e-01 1.460000e-02 0.000000e+00
5.840000e-01 1.460000e-02 0.000000e+00
0.000000e+00 2.920000e-02 0.000000e+00
1.460000e-02 2.920000e-02 0.000000e+00
2.920000e-02 2.920000e-02 0.000000e+00
4.380000e-02 2.920000e-02 0.000000e+00
5.840000e-02 2.920000e-02 0.000000e+00
7.300000e-02 2.920000e-02 0.000000e+00
8.760000e-02 2.920000e-02 0.000000e+00
1.022000e-01 2.920000e-02 0.000000e+00
1.168000e-01 2.920000e-02 0.000000e+00
1.314000e-01 2.920000e-02 0.000000e+00
1.460000e-01 2.920000e-02 0.000000e+00
1.606000e-01 2.920000e-02 0.000000e+00
1.752000e-01 2.920000e-02 0.000000e+00
1.898000e-01 2.920000e-02 0.000000e+00
2.044000e-01 2.920000e-02 0.000000e+00
2.190000e-01 2.920000e-02 0.000000e+00
2.336000e-01 2.920000e-02 0.000000e+00
2.482000e-01 2.920000e-02 0.000000e+00
2.628000e-01 2.920000e-02 0.000000e+00
2.774000e-01 2.920000e-02 0.000000e+00
2.920000e-01 2.920000e-02 0.000000e+00
3.066000e-01 2.920000e-02 0.000000e+00
3.212000e-01 2.920000e-02 0.000000e+00
3.358000e-01 2.920000e-02 0.000000e+00
3.504000e-01 2.920000e-02 0.000000e+00
3.650000e-01 2.920000e-02 0.000000e+00
3.796000e-01 2.920000e-02 0.000000e+00
3.942000e-01 2.920000e-02 0.000000e+00
4.088000e-01 2.920000e-02 0.000000e+00
4.234000e-01 2.920000e-02 0.000000e+00
4.380000e-01 2.920000e-02 0.000000e+00
4.526000e-01 2.920000e-02 0.000000e+00
4.672000e-01 2.920000e-02 0.000000e+00
4.818000e-01 2.920000e-02 0.000000e+00
4.964000e-01 2.920000e-02 0.000000e+00
5.110000e-01 2.920000e-02 0.000000e+00
5.256000e-01 2.920000e-02 0.000000e+00
5.402000e-01 2.920000e-02 0.000000e+00
5.548000e-01 2.920000e-02 0.000000e+00
5.694000e-01 2.920000e-02 0.000000e+00
5.840000e-01 2.920000e-02 0.000000e+00
0.000000e+00 4.380000e-02 0.000000e+00
1.460000e-02 4.380000e-02 0.000000e+00
2.920000e-02 4.380000e-02 0.000000e+00
4.380000e-02 4.380000e-02 0.000000e+00
5.840000e-02 4.380000e-02 0.000000e+00
7.300000e-02 4.380000e-02 0.000000e+00
8.760000e-02 4.380000e-02 0.000000e+00
1.022000e-01 4.380000e-02 0.000000e+00
1.168000e-01 4.380000e-02 0.000000e+00
1.314000e-01 4.380000e-02 0.000000e+00
1.460000e-01 4.380000e-02 0.000000e+00
1.606000e-01 4.380000e-02 0.000000e+00
1.752000e-01 4.380000e-02 0.000000e+00
1.898000e-01 4.380000e-02 0.000000e+00
2.044000e-01 4.380000e-02 0.000000e+00
2.190000e-01 4.380000e-02 0.000000e+00
2.336000e-01 4.380000e-02 0.000000e+00
2.482000e-01 4.380000e-02 0.000000e+00
2.628000e-01 4.380000e-02 0.000000e+00
2.774000e-01 4.380000e-02 0.000000e+00
2.920000e-01 4.380000e-02 0.000000e+00
3.066000e-01 4.380000e-02 0.000000e+00
3.212000e-01 4.380000e-02 0.000000e+00
3.358000e-01 4.380000e-02 0.000000e+00
3.504000e-01 4.380000e-02 0.000000e+00
3.650000e-01 4.380000e-02 0.000000e+00
3.796000e-01 4.380000e-02 0.000000e+00
3.942000e-01 4.380000e-02 0.000000e+00
4.088000e-01 4.380000e-02 0.000000e+00
4.234000e-01 4.380000e-02 0.000000e+00
4.380000e-01 4.380000e-02 0.000000e+00
4.526000e-01 4.380000e-02 0.000000e+00
4.672000e-01 4.380000e-02 0.000000e+00
4.818000e-01 4.380000e-02 0.000000e+00
4.964000e-01 4.380000e-02 0.000000e+00
5.110000e-01 4.380000e-02 0.000000e+00
5.256000e-01 4.380000e-02 0.000000e+00
5.402000e-01 4.380000e-02 0.000000e+00
5.548000e-01 4.380000e-02 0.000000e+00
5.694000e-01 4.380000e-02 0.000000e+00
5.840000e-01 4.380000e-02 0.000000e+00
0.000000e+00 5.840000e-02 0.000000e+00
1.460000e-02 5.840000e-02 0.000000e+00
2.920000e-02 5.840000e-02 0.000000e+00
4.380000e-02 5.840000e-02 0.000000e+00
5.840000e-02 5.840000e-02 0.000000e+00
7.300000e-02 5.840000e-02 0.000000e+00
8.760000e-02 5.840000e-02 0.000000e+00
1.022000e-01 5.840000e-02 0.000000e+00
1.168000e-01 5.840000e-02 0.000000e+00
1.314000e-01 5.840000e-02 0.000000e+00
1.460000e-01 5.840000e-02 0.000000e+00
1.606000e-01 5.840000e-02 0.000000e+00
1.752000e-01 5.840000e-02 0.000000e+00
1.898000e-01 5.840000e-02 0.000000e+00
2.044000e-01 5.840000e-02 0.000000e+00
2.190000e-01 5.840000e-02 0.000000e+00
2.336000e-01 5.840000e-02 0.000000e+00
2.482000e-01 5.840000e-02 0.000000e+00
2.628000e-01 5.840000e-02 0.000000e+00
2.774000e-01 5.840000e-02 0.000000e+00
2.920000e-01 5.840000e-02 0.000000e+00
3.066000e-01 5.840000e-02 0.000000e+00
3.212000e-01 5.840000e-02 0.000000e+00
3.358000e-01 5.840000e-02 0.000000e+00
3.504000e-01 5.840000e-02 0.000000e+00
3.650000e-01 5.840000e-02 0.000000e+00
3.796000e-01 5.840000e-02 0.000000e+00
3.942000e-01 5.840000e-02 0.000000e+00
4.088000e-01 5.840000e-02 0.000000e+00
4.234000e-01 5.840000e-02 0.000000e+00
4.380000e-01 5.840000e-02 0.000000e+00
4.526000e-01 5.840000e-02 0.000000e+00
4.672000e-01 5.840000e-02 0.000000e+00
4.818000e-01 5.840000e-02 0.000000e+00
4.964000e-01 5.840000e-02 0.000000e+00
5.110000e-01 5.840000e-02 0.000000e+00
5.256000e-01 5.840000e-02 0.000000e+00
5.402000e-01 5.840000e-02 0.000000e+00
5.548000e-01 5.840000e-02 0.000000e+00
5.694000e-01 5.840000e-02 0.000000e+00
5.840000e-01 5.840000e-02 0.000000e+00
0.000000e+00 7.300000e-02 0.000000e+00
1.460000e-02 7.300000e-02 0.000000e+00
2.920000e-02 7.300000e-02 0.000000e+00
4.380000e-02 7.300000e-02 0.000000e+00
5.840000e-02 7.300000e-02 0.000000e+00
7.300000e-02 7.300000e-02 0.000000e+00
8.760000e-02 7.300000e-02 0.000000e+00
1.022000e-01 7.300000e-02 0.000000e+00
1.168000e-01 7.300000e-02 0.000000e+00
1.314000e-01 7.300000e-02 0.000000e+00
1.460000e-01 7.300000e-02 0.000000e+00
1.606000e-01 7.300000e-02 0.000000e+00
1.752000e-01 7.300000e-02 0.000000e+00
1.898000e-01 7.300000e-02 0.000000e+00
2.044000e-01 7.300000e-02 0.000000e+00
2.190000e-01 7.300000e-02 0.000000e+00
2.336000e-01 7.300000e-02 0.000000e+00
2.482000e-01 7.300000e-02 0.000000e+00
2.628000e-01 7.300000e-02 0.000000e+00
2.774000e-01 7.300000e-02 0.000000e+00
2.920000e-01 7.300000e-02 0.000000e+00
3.066000e-01 7.300000e-02 0.000000e+00
3.212000e-01 7.300000e-02 0.000000e+00
3.358000e-01 7.300000e-02 0.000000e+00
3.504000e-01 7.300000e-02 0.000000e+00
3.650000e-01 7.300000e-02 0.000000e+00
3.796000e-01 7.300000e-02 0.000000e+00
3.942000e-01 7.300000e-02 0.000000e+00
4.088000e-01 7.300000e-02 0.000000e+00
4.234000e-01 7.300000e-02 0.000000e+00
4.380000e-01 7.300000e-02 0.000000e+00
4.526000e-01 7.300000e-02 0.000000e+00
4.672000e-01 7.300000e-02 0.000000e+00
4.818000e-01 7.300000e-02 0.000000e+00
4.964000e-01 7.300000e-02 0.000000e+00
5.110000e-01 7.300000e-02 0.000000e+00
5.256000e-01 7.300000e-02 0.000000e+00
5.402000e-01 7.300000e-02 0.000000e+00
5.548000e-01 7.300000e-02 0.000000e+00
5.694000e-01 7.300000e-02 0.000000e+00
5.840000e-01 7.300000e-02 0.000000e+00
0.000000e+00 8.760000e-02 0.000000e+00
1.460000e-02 8.760000e-02 0.000000e+00
2.920000e-02 8.760000e-02 0.000000e+00
4.380000e-02 8.760000e-02 0.000000e+00
5.840000e-02 8.760000e-02 0.000000e+00
7.300000e-02 8.760000e-02 0.000000e+00
8.760000e-02 8.760000e-02 0.000000e+00
1.022000e-01 8.760000e-02 0.000000e+00
[...]
POINT_DATA 11767
VECTORS Velocity float
0.000000e+00 0.000000e+00 0.000000e+00
7.481588e-02 0.000000e+00 0.000000e+00
1.459998e-01 0.000000e+00 0.000000e+00
2.199478e-01 0.000000e+00 0.000000e+00
2.974983e-01 0.000000e+00 0.000000e+00
3.810619e-01 0.000000e+00 0.000000e+00
4.724619e-01 0.000000e+00 0.000000e+00
5.753508e-01 0.000000e+00 0.000000e+00
6.911311e-01 0.000000e+00 0.000000e+00
8.257211e-01 0.000000e+00 0.000000e+00
9.799170e-01 0.000000e+00 0.000000e+00
1.150528e+00 0.000000e+00 0.000000e+00
1.326418e+00 0.000000e+00 0.000000e+00
1.493184e+00 0.000000e+00 0.000000e+00
1.644892e+00 0.000000e+00 0.000000e+00
1.775349e+00 0.000000e+00 0.000000e+00
1.877877e+00 0.000000e+00 0.000000e+00
1.943463e+00 0.000000e+00 0.000000e+00
1.892871e+00 0.000000e+00 0.000000e+00
1.604984e+00 0.000000e+00 0.000000e+00
1.302971e+00 0.000000e+00 0.000000e+00
1.034366e+00 0.000000e+00 0.000000e+00
8.273457e-01 0.000000e+00 0.000000e+00
6.672411e-01 0.000000e+00 0.000000e+00
5.543538e-01 0.000000e+00 0.000000e+00
4.657205e-01 0.000000e+00 0.000000e+00
3.993836e-01 0.000000e+00 0.000000e+00
3.431098e-01 0.000000e+00 0.000000e+00
2.977991e-01 0.000000e+00 0.000000e+00
2.574604e-01 0.000000e+00 0.000000e+00
2.233307e-01 0.000000e+00 0.000000e+00
1.921501e-01 0.000000e+00 0.000000e+00
1.648046e-01 0.000000e+00 0.000000e+00
1.393584e-01 0.000000e+00 0.000000e+00
1.163617e-01 0.000000e+00 0.000000e+00
9.459821e-02 0.000000e+00 0.000000e+00
7.436637e-02 0.000000e+00 0.000000e+00
5.490401e-02 0.000000e+00 0.000000e+00
3.627959e-02 0.000000e+00 0.000000e+00
1.811296e-02 0.000000e+00 0.000000e+00
0.000000e+00 0.000000e+00 0.000000e+00
0.000000e+00 8.589118e-15 0.000000e+00
7.481588e-02 -9.924361e-15 0.000000e+00
1.459998e-01 5.782036e-15 0.000000e+00
2.199478e-01 -2.287025e-15 0.000000e+00
2.974983e-01 2.460316e-15 0.000000e+00
3.810619e-01 -7.603602e-16 0.000000e+00
4.724619e-01 -4.597064e-15 0.000000e+00
5.753508e-01 1.613673e-15 0.000000e+00
6.911311e-01 -8.716159e-16 0.000000e+00
8.257211e-01 3.374241e-16 0.000000e+00
9.799170e-01 7.861391e-16 0.000000e+00
1.150528e+00 -4.598488e-16 0.000000e+00
1.326418e+00 4.619057e-16 0.000000e+00
1.493184e+00 2.662593e-16 0.000000e+00
1.644892e+00 -2.143113e-16 0.000000e+00
1.775349e+00 1.022283e-15 0.000000e+00
1.877877e+00 1.354947e-15 0.000000e+00
1.943463e+00 1.235029e-15 0.000000e+00
1.892871e+00 -2.724921e-15 0.000000e+00
1.604984e+00 4.127267e-15 0.000000e+00
1.302971e+00 -6.819315e-15 0.000000e+00
1.034366e+00 7.258076e-15 0.000000e+00
8.273457e-01 -5.991444e-15 0.000000e+00
6.672411e-01 6.459260e-15 0.000000e+00
5.543538e-01 -1.684666e-14 0.000000e+00
4.657205e-01 2.177543e-14 0.000000e+00
3.993836e-01 -2.356054e-14 0.000000e+00
3.431098e-01 1.861484e-14 0.000000e+00
2.977991e-01 2.229002e-14 0.000000e+00
2.574604e-01 -1.399703e-14 0.000000e+00
2.233307e-01 7.837816e-15 0.000000e+00
1.921501e-01 -1.652504e-14 0.000000e+00
1.648046e-01 -1.975349e-14 0.000000e+00
1.393584e-01 5.721752e-14 0.000000e+00
1.163617e-01 -4.418716e-14 0.000000e+00
9.459821e-02 5.071741e-14 0.000000e+00
7.436637e-02 -6.214954e-14 0.000000e+00
5.490401e-02 6.124315e-14 0.000000e+00
3.627959e-02 -1.437389e-13 0.000000e+00
1.811296e-02 1.101172e-13 0.000000e+00
0.000000e+00 -1.160674e-13 0.000000e+00
0.000000e+00 -4.084753e-15 0.000000e+00
7.481588e-02 6.537039e-15 0.000000e+00
1.459998e-01 8.847077e-15 0.000000e+00
2.199478e-01 4.717269e-17 0.000000e+00
2.974983e-01 -1.048392e-16 0.000000e+00
3.810619e-01 -2.015409e-15 0.000000e+00
4.724619e-01 -1.899412e-16 0.000000e+00
5.753508e-01 -1.709325e-15 0.000000e+00
6.911311e-01 4.095009e-16 0.000000e+00
8.257211e-01 -9.311900e-16 0.000000e+00
9.799170e-01 1.748105e-15 0.000000e+00
1.150528e+00 -1.516743e-15 0.000000e+00
1.326418e+00 5.984944e-16 0.000000e+00
1.493184e+00 -4.151816e-16 0.000000e+00
1.644892e+00 2.178112e-15 0.000000e+00
1.775349e+00 1.209862e-15 0.000000e+00
1.877877e+00 -2.915919e-16 0.000000e+00
1.943463e+00 1.014155e-15 0.000000e+00
1.892871e+00 -2.377653e-15 0.000000e+00
1.604984e+00 -2.827676e-17 0.000000e+00
1.302971e+00 -3.197089e-15 0.000000e+00
1.034366e+00 -1.334812e-15 0.000000e+00
8.273457e-01 6.721451e-15 0.000000e+00
6.672411e-01 -6.506283e-16 0.000000e+00
5.543538e-01 -2.000174e-14 0.000000e+00
4.657205e-01 2.536604e-14 0.000000e+00
3.993836e-01 -3.227141e-14 0.000000e+00
3.431098e-01 3.113723e-14 0.000000e+00
2.977991e-01 1.393312e-14 0.000000e+00
2.574604e-01 -2.014572e-14 0.000000e+00
2.233307e-01 1.541405e-14 0.000000e+00
1.921501e-01 -2.909580e-14 0.000000e+00
1.648046e-01 -9.202336e-15 0.000000e+00
1.393584e-01 2.379218e-14 0.000000e+00
1.163617e-01 1.245617e-14 0.000000e+00
9.459821e-02 -3.487180e-14 0.000000e+00
7.436637e-02 9.714038e-15 0.000000e+00
5.490401e-02 -1.461005e-14 0.000000e+00
3.627959e-02 5.019127e-14 0.000000e+00
1.811296e-02 5.823002e-14 0.000000e+00
0.000000e+00 -7.623201e-14 0.000000e+00
0.000000e+00 -3.631553e-15 0.000000e+00
7.481588e-02 -5.522179e-15 0.000000e+00
1.459998e-01 4.133089e-15 0.000000e+00
2.199478e-01 3.628798e-15 0.000000e+00
2.974983e-01 -4.695759e-15 0.000000e+00
3.810619e-01 1.637712e-15 0.000000e+00
4.724619e-01 -3.950773e-15 0.000000e+00
5.753508e-01 -1.348401e-15 0.000000e+00
6.911311e-01 1.891754e-15 0.000000e+00
8.257211e-01 6.969632e-16 0.000000e+00
9.799170e-01 3.981865e-15 0.000000e+00
1.150528e+00 -1.918427e-15 0.000000e+00
1.326418e+00 2.397501e-15 0.000000e+00
1.493184e+00 -8.445029e-16 0.000000e+00
1.644892e+00 6.233917e-16 0.000000e+00
1.775349e+00 4.079722e-16 0.000000e+00
1.877877e+00 3.451416e-16 0.000000e+00
1.943463e+00 9.024306e-16 0.000000e+00
1.892871e+00 -2.393502e-15 0.000000e+00
1.604984e+00 5.283046e-15 0.000000e+00
1.302971e+00 9.478330e-16 0.000000e+00
1.034366e+00 4.028708e-15 0.000000e+00
8.273457e-01 3.650060e-15 0.000000e+00
6.672411e-01 7.822659e-15 0.000000e+00
5.543538e-01 -3.122863e-14 0.000000e+00
4.657205e-01 4.668517e-14 0.000000e+00
3.993836e-01 -2.832479e-14 0.000000e+00
3.431098e-01 2.720536e-14 0.000000e+00
2.977991e-01 2.250172e-14 0.000000e+00
2.574604e-01 -2.796905e-14 0.000000e+00
2.233307e-01 4.131000e-14 0.000000e+00
1.921501e-01 -2.909771e-14 0.000000e+00
1.648046e-01 -1.536341e-14 0.000000e+00
1.393584e-01 5.399319e-14 0.000000e+00
1.163617e-01 6.908896e-15 0.000000e+00
9.459821e-02 1.763994e-14 0.000000e+00
7.436637e-02 -9.725818e-15 0.000000e+00
5.490401e-02 4.622649e-15 0.000000e+00
3.627959e-02 -2.867384e-14 0.000000e+00
1.811296e-02 8.488758e-14 0.000000e+00
0.000000e+00 -7.691933e-14 0.000000e+00
0.000000e+00 -7.151159e-15 0.000000e+00
7.481588e-02 1.074823e-14 0.000000e+00
1.459998e-01 -1.728122e-15 0.000000e+00
2.199478e-01 5.586236e-15 0.000000e+00
2.974983e-01 -1.140683e-15 0.000000e+00
3.810619e-01 -2.749911e-15 0.000000e+00
4.724619e-01 -4.995927e-16 0.000000e+00
5.753508e-01 -7.395798e-16 0.000000e+00
6.911311e-01 1.813152e-15 0.000000e+00
8.257211e-01 -7.007090e-16 0.000000e+00
9.799170e-01 -1.185362e-15 0.000000e+00
1.150528e+00 -1.316865e-15 0.000000e+00
1.326418e+00 5.874915e-16 0.000000e+00
1.493184e+00 -7.348212e-16 0.000000e+00
1.644892e+00 -8.566504e-17 0.000000e+00
1.775349e+00 3.089628e-16 0.000000e+00
1.877877e+00 1.217672e-15 0.000000e+00
1.943463e+00 7.314197e-16 0.000000e+00
1.892871e+00 -3.313398e-15 0.000000e+00
1.604984e+00 -7.840468e-16 0.000000e+00
1.302971e+00 4.746303e-15 0.000000e+00
1.034366e+00 1.300752e-15 0.000000e+00
8.273457e-01 1.945926e-14 0.000000e+00
6.672411e-01 -4.562830e-15 0.000000e+00
5.543538e-01 -2.100867e-14 0.000000e+00
4.657205e-01 4.497339e-14 0.000000e+00
3.993836e-01 -3.093827e-14 0.000000e+00
3.431098e-01 3.845121e-14 0.000000e+00
2.977991e-01 9.226358e-15 0.000000e+00
2.574604e-01 -2.374939e-14 0.000000e+00
2.233307e-01 2.452377e-14 0.000000e+00
1.921501e-01 -3.048074e-14 0.000000e+00
1.648046e-01 -1.593362e-14 0.000000e+00
1.393584e-01 3.374419e-14 0.000000e+00
1.163617e-01 3.297781e-15 0.000000e+00
9.459821e-02 -1.118161e-14 0.000000e+00
7.436637e-02 6.009338e-15 0.000000e+00
5.490401e-02 -2.599412e-14 0.000000e+00
3.627959e-02 2.060841e-14 0.000000e+00
1.811296e-02 3.296978e-14 0.000000e+00
0.000000e+00 -4.622684e-14 0.000000e+00
0.000000e+00 -3.640897e-15 0.000000e+00
7.481588e-02 -1.843993e-16 0.000000e+00
1.459998e-01 -8.179632e-16 0.000000e+00
2.199478e-01 2.738558e-15 0.000000e+00
2.974983e-01 -4.742473e-15 0.000000e+00
3.810619e-01 -7.904203e-16 0.000000e+00
4.724619e-01 -2.867164e-15 0.000000e+00
5.753508e-01 -3.600659e-15 0.000000e+00
6.911311e-01 -5.288701e-16 0.000000e+00
8.257211e-01 -1.232578e-16 0.000000e+00
9.799170e-01 -1.048986e-15 0.000000e+00
1.150528e+00 -6.207907e-16 0.000000e+00
1.326418e+00 1.712454e-15 0.000000e+00
1.493184e+00 -2.914380e-15 0.000000e+00
1.644892e+00 3.650846e-16 0.000000e+00
1.775349e+00 -3.727142e-17 0.000000e+00
1.877877e+00 1.295915e-15 0.000000e+00
1.943463e+00 1.186818e-15 0.000000e+00
1.892871e+00 -6.854178e-15 0.000000e+00
1.604984e+00 -4.477596e-15 0.000000e+00
1.302971e+00 1.680552e-15 0.000000e+00
1.034366e+00 -6.451049e-15 0.000000e+00
8.273457e-01 1.363137e-14 0.000000e+00
6.672411e-01 -1.565960e-14 0.000000e+00
5.543538e-01 -1.277006e-14 0.000000e+00
4.657205e-01 3.292876e-14 0.000000e+00
3.993836e-01 -3.564454e-14 0.000000e+00
3.431098e-01 1.792000e-14 0.000000e+00
2.977991e-01 7.777707e-15 0.000000e+00
2.574604e-01 -1.361982e-14 0.000000e+00
2.233307e-01 1.276082e-14 0.000000e+00
1.921501e-01 -1.301560e-14 0.000000e+00
1.648046e-01 -4.109157e-14 0.000000e+00
1.393584e-01 5.681512e-14 0.000000e+00
1.163617e-01 -4.187986e-14 0.000000e+00
9.459821e-02 4.968702e-14 0.000000e+00
7.436637e-02 -6.572621e-14 0.000000e+00
5.490401e-02 8.062380e-14 0.000000e+00
3.627959e-02 -1.354325e-13 0.000000e+00
1.811296e-02 1.869583e-13 0.000000e+00
0.000000e+00 -1.780051e-13 0.000000e+00
0.000000e+00 0.000000e+00 0.000000e+00
7.481588e-02 0.000000e+00 0.000000e+00
1.459998e-01 0.000000e+00 0.000000e+00
2.199478e-01 0.000000e+00 0.000000e+00
2.974983e-01 0.000000e+00 0.000000e+00
3.810619e-01 0.000000e+00 0.000000e+00
4.724619e-01 0.000000e+00 0.000000e+00
5.753508e-01 0.000000e+00 0.000000e+00
6.911311e-01 0.000000e+00 0.000000e+00
8.257211e-01 0.000000e+00 0.000000e+00
9.799170e-01 0.000000e+00 0.000000e+00
1.150528e+00 0.000000e+00 0.000000e+00
1.326418e+00 0.000000e+00 0.000000e+00
1.493184e+00 0.000000e+00 0.000000e+00
1.644892e+00 0.000000e+00 0.000000e+00
1.775349e+00 0.000000e+00 0.000000e+00
1.877877e+00 0.000000e+00 0.000000e+00
1.943463e+00 0.000000e+00 0.000000e+00
1.892871e+00 0.000000e+00 0.000000e+00
1.604984e+00 0.000000e+00 0.000000e+00
1.302971e+00 0.000000e+00 0.000000e+00
1.034366e+00 0.000000e+00 0.000000e+00
8.273457e-01 0.000000e+00 0.000000e+00
6.672411e-01 0.000000e+00 0.000000e+00
5.543538e-01 0.000000e+00 0.000000e+00
4.657205e-01 0.000000e+00 0.000000e+00
3.993836e-01 0.000000e+00 0.000000e+00
3.431098e-01 0.000000e+00 0.000000e+00
2.977991e-01 0.000000e+00 0.000000e+00
2.574604e-01 0.000000e+00 0.000000e+00
2.233307e-01 0.000000e+00 0.000000e+00
1.921501e-01 0.000000e+00 0.000000e+00
1.648046e-01 0.000000e+00 0.000000e+00
1.393584e-01 0.000000e+00 0.000000e+00
1.163617e-01 0.000000e+00 0.000000e+00
9.459821e-02 0.000000e+00 0.000000e+00
7.436637e-02 0.000000e+00 0.000000e+00
5.490401e-02 0.000000e+00 0.000000e+00
3.627959e-02 0.000000e+00 0.000000e+00
1.811296e-02 0.000000e+00 0.000000e+00
0.000000e+00 0.000000e+00 0.000000e+00
0.000000e+00 0.000000e+00 -7.609703e-02
6.992232e-02 0.000000e+00 -7.411897e-02
1.409774e-01 0.000000e+00 -7.401065e-02
2.135211e-01 0.000000e+00 -7.725445e-02
2.891579e-01 0.000000e+00 -8.154805e-02
3.692452e-01 0.000000e+00 -8.771021e-02
4.552544e-01 0.000000e+00 -9.661512e-02
5.496482e-01 0.000000e+00 -1.073639e-01
6.532248e-01 0.000000e+00 -1.214851e-01
7.709662e-01 0.000000e+00 -1.400694e-01
9.034414e-01 0.000000e+00 -1.570972e-01
1.048350e+00 0.000000e+00 -1.685768e-01
1.196963e+00 0.000000e+00 -1.657087e-01
1.337800e+00 0.000000e+00 -1.534512e-01
1.465933e+00 0.000000e+00 -1.365132e-01
1.573477e+00 0.000000e+00 -1.105648e-01
1.650760e+00 0.000000e+00 -8.174428e-02
1.683125e+00 0.000000e+00 -1.663669e-02
1.584446e+00 0.000000e+00 1.845961e-01
1.309814e+00 0.000000e+00 3.045603e-01
1.082235e+00 0.000000e+00 2.580771e-01
8.796298e-01 0.000000e+00 2.142788e-01
7.336098e-01 0.000000e+00 1.618841e-01
6.135783e-01 0.000000e+00 1.210335e-01
5.250228e-01 0.000000e+00 9.018716e-02
4.494778e-01 0.000000e+00 7.065063e-02
3.901410e-01 0.000000e+00 5.637984e-02
3.377705e-01 0.000000e+00 4.702174e-02
2.946126e-01 0.000000e+00 3.960618e-02
2.556531e-01 0.000000e+00 3.435269e-02
2.223325e-01 0.000000e+00 2.994782e-02
1.917257e-01 0.000000e+00 2.667928e-02
1.647304e-01 0.000000e+00 2.386409e-02
1.395383e-01 0.000000e+00 2.175951e-02
1.166937e-01 0.000000e+00 1.991500e-02
9.502579e-02 0.000000e+00 1.859716e-02
7.483520e-02 0.000000e+00 1.741271e-02
5.534293e-02 0.000000e+00 1.669344e-02
3.665008e-02 0.000000e+00 1.599775e-02
1.822331e-02 0.000000e+00 1.581228e-02
0.000000e+00 0.000000e+00 1.575760e-02
0.000000e+00 3.396927e-15 -7.609703e-02
6.992232e-02 -3.672755e-15 -7.411897e-02
1.409774e-01 3.724929e-15 -7.401065e-02
2.135211e-01 -3.198336e-15 -7.725445e-02
2.891579e-01 1.495498e-15 -8.154805e-02
3.692452e-01 2.121167e-15 -8.771021e-02
4.552544e-01 -3.283467e-15 -9.661512e-02
5.496482e-01 1.024906e-15 -1.073639e-01
6.532248e-01 -6.500065e-16 -1.214851e-01
7.709662e-01 -2.399886e-15 -1.400694e-01
9.034414e-01 9.849817e-16 -1.570972e-01
1.048350e+00 3.354879e-16 -1.685768e-01
1.196963e+00 2.293775e-15 -1.657087e-01
1.337800e+00 -6.212799e-16 -1.534512e-01
1.465933e+00 1.577332e-15 -1.365132e-01
1.573477e+00 3.427972e-15 -1.105648e-01
1.650760e+00 3.982239e-16 -8.174428e-02
1.683125e+00 -1.299227e-15 -1.663669e-02
1.584446e+00 -3.015209e-16 1.845961e-01
1.309814e+00 -2.612556e-15 3.045603e-01
1.082235e+00 -1.008341e-15 2.580771e-01
8.796298e-01 -1.696271e-15 2.142788e-01
7.336098e-01 8.972421e-15 1.618841e-01
6.135783e-01 -6.515645e-15 1.210335e-01
5.250228e-01 -2.630840e-15 9.018716e-02
4.494778e-01 1.362015e-14 7.065063e-02
3.901410e-01 -1.000253e-14 5.637984e-02
3.377705e-01 1.343114e-14 4.702174e-02
2.946126e-01 -9.463133e-15 3.960618e-02
2.556531e-01 6.919140e-15 3.435269e-02
2.223325e-01 -1.343286e-14 2.994782e-02
1.917257e-01 5.661811e-15 2.667928e-02
1.647304e-01 -2.505888e-14 2.386409e-02
1.395383e-01 3.720270e-14 2.175951e-02
1.166937e-01 -1.506505e-14 1.991500e-02
9.502579e-02 2.075382e-14 1.859716e-02
7.483520e-02 -3.227355e-14 1.741271e-02
5.534293e-02 2.872400e-14 1.669344e-02
3.665008e-02 -5.383178e-14 1.599775e-02
1.822331e-02 9.257610e-14 1.581228e-02
0.000000e+00 -7.422029e-14 1.575760e-02
0.000000e+00 5.082402e-15 -7.609703e-02
6.992232e-02 -4.760296e-15 -7.411897e-02
1.409774e-01 2.267749e-15 -7.401065e-02
2.135211e-01 -2.280313e-15 -7.725445e-02
2.891579e-01 -1.113607e-15 -8.154805e-02
3.692452e-01 1.574353e-15 -8.771021e-02
4.552544e-01 2.560877e-16 -9.661512e-02
5.496482e-01 8.896975e-16 -1.073639e-01
6.532248e-01 -3.879496e-16 -1.214851e-01
7.709662e-01 -7.446972e-16 -1.400694e-01
9.034414e-01 1.113005e-15 -1.570972e-01
1.048350e+00 3.535479e-16 -1.685768e-01
1.196963e+00 -1.282425e-16 -1.657087e-01
1.337800e+00 -6.386918e-16 -1.534512e-01
1.465933e+00 1.780553e-15 -1.365132e-01
1.573477e+00 1.822155e-15 -1.105648e-01
1.650760e+00 2.231593e-15 -8.174428e-02
1.683125e+00 1.382033e-15 -1.663669e-02
1.584446e+00 6.871725e-15 1.845961e-01
1.309814e+00 -1.153538e-14 3.045603e-01
1.082235e+00 3.653405e-15 2.580771e-01
8.796298e-01 -1.115606e-14 2.142788e-01
7.336098e-01 1.990476e-14 1.618841e-01
6.135783e-01 -1.565256e-14 1.210335e-01
5.250228e-01 1.142659e-14 9.018716e-02
4.494778e-01 -2.631700e-15 7.065063e-02
3.901410e-01 -1.186071e-14 5.637984e-02
3.377705e-01 1.309112e-14 4.702174e-02
2.946126e-01 -1.134099e-14 3.960618e-02
2.556531e-01 -6.160257e-15 3.435269e-02
2.223325e-01 -1.076811e-14 2.994782e-02
1.917257e-01 -4.118565e-15 2.667928e-02
1.647304e-01 -1.063615e-14 2.386409e-02
1.395383e-01 2.380794e-14 2.175951e-02
1.166937e-01 5.615244e-15 1.991500e-02
9.502579e-02 -3.176449e-14 1.859716e-02
7.483520e-02 4.631251e-15 1.741271e-02
5.534293e-02 -2.830338e-14 1.669344e-02
3.665008e-02 3.231413e-15 1.599775e-02
1.822331e-02 3.825283e-14 1.581228e-02
0.000000e+00 -4.538634e-14 1.575760e-02
0.000000e+00 5.345809e-15 -7.609703e-02
6.992232e-02 2.918990e-15 -7.411897e-02
1.409774e-01 -2.770133e-15 -7.401065e-02
2.135211e-01 -2.331689e-15 -7.725445e-02
2.891579e-01 1.228592e-15 -8.154805e-02
3.692452e-01 2.861239e-15 -8.771021e-02
4.552544e-01 -4.826491e-17 -9.661512e-02
5.496482e-01 2.058936e-16 -1.073639e-01
6.532248e-01 -6.638296e-16 -1.214851e-01
7.709662e-01 6.362624e-16 -1.400694e-01
9.034414e-01 3.508866e-16 -1.570972e-01
1.048350e+00 5.521249e-16 -1.685768e-01
1.196963e+00 -2.051028e-16 -1.657087e-01
1.337800e+00 -5.556477e-16 -1.534512e-01
1.465933e+00 -1.279271e-16 -1.365132e-01
1.573477e+00 1.478820e-15 -1.105648e-01
1.650760e+00 1.583184e-15 -8.174428e-02
1.683125e+00 -1.010208e-15 -1.663669e-02
1.584446e+00 1.361211e-14 1.845961e-01
1.309814e+00 -8.624264e-15 3.045603e-01
1.082235e+00 2.968958e-15 2.580771e-01
8.796298e-01 -7.813426e-15 2.142788e-01
7.336098e-01 1.717310e-14 1.618841e-01
6.135783e-01 2.110690e-15 1.210335e-01
5.250228e-01 8.052515e-15 9.018716e-02
4.494778e-01 9.794786e-15 7.065063e-02
3.901410e-01 -9.046343e-15 5.637984e-02
3.377705e-01 1.932374e-14 4.702174e-02
2.946126e-01 2.358543e-15 3.960618e-02
2.556531e-01 -1.293596e-14 3.435269e-02
2.223325e-01 -8.724319e-15 2.994782e-02
1.917257e-01 -8.717297e-15 2.667928e-02
1.647304e-01 -9.213111e-15 2.386409e-02
1.395383e-01 4.925344e-14 2.175951e-02
1.166937e-01 -2.383576e-14 1.991500e-02
9.502579e-02 1.790163e-14 1.859716e-02
7.483520e-02 -2.968884e-14 1.741271e-02
5.534293e-02 8.380599e-15 1.669344e-02
3.665008e-02 -5.669149e-14 1.599775e-02
1.822331e-02 1.170758e-13 1.581228e-02
0.000000e+00 -8.943759e-14 1.575760e-02
0.000000e+00 7.470076e-15 -7.609703e-02
6.992232e-02 -5.568540e-15 -7.411897e-02
1.409774e-01 4.719920e-15 -7.401065e-02
2.135211e-01 -1.404281e-15 -7.725445e-02
2.891579e-01 -1.213459e-15 -8.154805e-02
3.692452e-01 9.041729e-16 -8.771021e-02
4.552544e-01 -1.170912e-15 -9.661512e-02
5.496482e-01 9.437661e-17 -1.073639e-01
6.532248e-01 6.919446e-16 -1.214851e-01
7.709662e-01 -1.288872e-15 -1.400694e-01
9.034414e-01 3.049514e-15 -1.570972e-01
1.048350e+00 -2.111262e-15 -1.685768e-01
1.196963e+00 1.975939e-15 -1.657087e-01
1.337800e+00 -4.114131e-16 -1.534512e-01
1.465933e+00 5.107501e-17 -1.365132e-01
1.573477e+00 -5.844926e-16 -1.105648e-01
1.650760e+00 -8.753145e-16 -8.174428e-02
1.683125e+00 -1.463804e-15 -1.663669e-02
1.584446e+00 9.701167e-15 1.845961e-01
1.309814e+00 -3.964586e-15 3.045603e-01
1.082235e+00 7.680220e-15 2.580771e-01
8.796298e-01 -1.296433e-14 2.142788e-01
7.336098e-01 2.192779e-14 1.618841e-01
6.135783e-01 -1.340812e-14 1.210335e-01
5.250228e-01 1.000196e-14 9.018716e-02
4.494778e-01 4.770523e-16 7.065063e-02
3.901410e-01 -1.114759e-15 5.637984e-02
3.377705e-01 9.934843e-15 4.702174e-02
2.946126e-01 9.460003e-15 3.960618e-02
2.556531e-01 -5.723674e-15 3.435269e-02
2.223325e-01 3.499264e-16 2.994782e-02
1.917257e-01 -1.719459e-14 2.667928e-02
1.647304e-01 5.482818e-17 2.386409e-02
1.395383e-01 1.694736e-14 2.175951e-02
1.166937e-01 1.614304e-14 1.991500e-02
9.502579e-02 -4.997072e-14 1.859716e-02
7.483520e-02 1.969832e-14 1.741271e-02
5.534293e-02 -3.985109e-14 1.669344e-02
3.665008e-02 2.681520e-14 1.599775e-02
1.822331e-02 3.951948e-14 1.581228e-02
0.000000e+00 -6.922459e-14 1.575760e-02
0.000000e+00 -2.396242e-15 -7.609703e-02
6.992232e-02 2.771377e-15 -7.411897e-02
1.409774e-01 -2.324677e-15 -7.401065e-02
2.135211e-01 -1.474382e-15 -7.725445e-02
2.891579e-01 -1.206953e-15 -8.154805e-02
3.692452e-01 -8.790564e-16 -8.771021e-02
4.552544e-01 1.505863e-15 -9.661512e-02
5.496482e-01 4.410771e-16 -1.073639e-01
6.532248e-01 -2.389649e-15 -1.214851e-01
7.709662e-01 -6.328136e-16 -1.400694e-01
9.034414e-01 -4.135345e-16 -1.570972e-01
1.048350e+00 -2.635918e-15 -1.685768e-01