# vtk DataFile Version 3.0
vtk output
ASCII
DATASET UNSTRUCTURED_GRID
POINTS 11767 float
0.000000e+00 0.000000e+00 0.000000e+00
1.460000e-02 0.000000e+00 0.000000e+00
2.920000e-02 0.000000e+00 0.000000e+00
4.380000e-02 0.000000e+00 0.000000e+00
5.840000e-02 0.000000e+00 0.000000e+00
7.300000e-02 0.000000e+00 0.000000e+00
8.760000e-02 0.000000e+00 0.000000e+00
1.022000e-01 0.000000e+00 0.000000e+00
1.168000e-01 0.000000e+00 0.000000e+00
1.314000e-01 0.000000e+00 0.000000e+00
1.460000e-01 0.000000e+00 0.000000e+00
1.606000e-01 0.000000e+00 0.000000e+00
1.752000e-01 0.000000e+00 0.000000e+00
1.898000e-01 0.000000e+00 0.000000e+00
2.044000e-01 0.000000e+00 0.000000e+00
2.190000e-01 0.000000e+00 0.000000e+00
2.336000e-01 0.000000e+00 0.000000e+00
2.482000e-01 0.000000e+00 0.000000e+00
2.628000e-01 0.000000e+00 0.000000e+00
2.774000e-01 0.000000e+00 0.000000e+00
2.920000e-01 0.000000e+00 0.000000e+00
3.066000e-01 0.000000e+00 0.000000e+00
3.212000e-01 0.000000e+00 0.000000e+00
3.358000e-01 0.000000e+00 0.000000e+00
3.504000e-01 0.000000e+00 0.000000e+00
3.650000e-01 0.000000e+00 0.000000e+00
3.796000e-01 0.000000e+00 0.000000e+00
3.942000e-01 0.000000e+00 0.000000e+00
4.088000e-01 0.000000e+00 0.000000e+00
4.234000e-01 0.000000e+00 0.000000e+00
4.380000e-01 0.000000e+00 0.000000e+00
4.526000e-01 0.000000e+00 0.000000e+00
4.672000e-01 0.000000e+00 0.000000e+00
4.818000e-01 0.000000e+00 0.000000e+00
4.964000e-01 0.000000e+00 0.000000e+00
5.110000e-01 0.000000e+00 0.000000e+00
5.256000e-01 0.000000e+00 0.000000e+00
5.402000e-01 0.000000e+00 0.000000e+00
5.548000e-01 0.000000e+00 0.000000e+00
5.694000e-01 0.000000e+00 0.000000e+00
5.840000e-01 0.000000e+00 0.000000e+00
0.000000e+00 1.460000e-02 0.000000e+00
1.460000e-02 1.460000e-02 0.000000e+00
2.920000e-02 1.460000e-02 0.000000e+00
4.380000e-02 1.460000e-02 0.000000e+00
5.840000e-02 1.460000e-02 0.000000e+00
7.300000e-02 1.460000e-02 0.000000e+00
8.760000e-02 1.460000e-02 0.000000e+00
1.022000e-01 1.460000e-02 0.000000e+00
1.168000e-01 1.460000e-02 0.000000e+00
1.314000e-01 1.460000e-02 0.000000e+00
1.460000e-01 1.460000e-02 0.000000e+00
1.606000e-01 1.460000e-02 0.000000e+00
1.752000e-01 1.460000e-02 0.000000e+00
1.898000e-01 1.460000e-02 0.000000e+00
2.044000e-01 1.460000e-02 0.000000e+00
2.190000e-01 1.460000e-02 0.000000e+00
2.336000e-01 1.460000e-02 0.000000e+00
2.482000e-01 1.460000e-02 0.000000e+00
2.628000e-01 1.460000e-02 0.000000e+00
2.774000e-01 1.460000e-02 0.000000e+00
2.920000e-01 1.460000e-02 0.000000e+00
3.066000e-01 1.460000e-02 0.000000e+00
3.212000e-01 1.460000e-02 0.000000e+00
3.358000e-01 1.460000e-02 0.000000e+00
3.504000e-01 1.460000e-02 0.000000e+00
3.650000e-01 1.460000e-02 0.000000e+00
3.796000e-01 1.460000e-02 0.000000e+00
3.942000e-01 1.460000e-02 0.000000e+00
4.088000e-01 1.460000e-02 0.000000e+00
4.234000e-01 1.460000e-02 0.000000e+00
4.380000e-01 1.460000e-02 0.000000e+00
4.526000e-01 1.460000e-02 0.000000e+00
4.672000e-01 1.460000e-02 0.000000e+00
4.818000e-01 1.460000e-02 0.000000e+00
4.964000e-01 1.460000e-02 0.000000e+00
5.110000e-01 1.460000e-02 0.000000e+00
5.256000e-01 1.460000e-02 0.000000e+00
5.402000e-01 1.460000e-02 0.000000e+00
5.548000e-01 1.460000e-02 0.000000e+00
5.694000e-01 1.460000e-02 0.000000e+00
5.840000e-01 1.460000e-02 0.000000e+00
0.000000e+00 2.920000e-02 0.000000e+00
1.460000e-02 2.920000e-02 0.000000e+00
2.920000e-02 2.920000e-02 0.000000e+00
4.380000e-02 2.920000e-02 0.000000e+00
5.840000e-02 2.920000e-02 0.000000e+00
7.300000e-02 2.920000e-02 0.000000e+00
8.760000e-02 2.920000e-02 0.000000e+00
1.022000e-01 2.920000e-02 0.000000e+00
1.168000e-01 2.920000e-02 0.000000e+00
1.314000e-01 2.920000e-02 0.000000e+00
1.460000e-01 2.920000e-02 0.000000e+00
1.606000e-01 2.920000e-02 0.000000e+00
1.752000e-01 2.920000e-02 0.000000e+00
1.898000e-01 2.920000e-02 0.000000e+00
2.044000e-01 2.920000e-02 0.000000e+00
2.190000e-01 2.920000e-02 0.000000e+00
2.336000e-01 2.920000e-02 0.000000e+00
2.482000e-01 2.920000e-02 0.000000e+00
2.628000e-01 2.920000e-02 0.000000e+00
2.774000e-01 2.920000e-02 0.000000e+00
2.920000e-01 2.920000e-02 0.000000e+00
3.066000e-01 2.920000e-02 0.000000e+00
3.212000e-01 2.920000e-02 0.000000e+00
3.358000e-01 2.920000e-02 0.000000e+00
3.504000e-01 2.920000e-02 0.000000e+00
3.650000e-01 2.920000e-02 0.000000e+00
3.796000e-01 2.920000e-02 0.000000e+00
3.942000e-01 2.920000e-02 0.000000e+00
4.088000e-01 2.920000e-02 0.000000e+00
4.234000e-01 2.920000e-02 0.000000e+00
4.380000e-01 2.920000e-02 0.000000e+00
4.526000e-01 2.920000e-02 0.000000e+00
4.672000e-01 2.920000e-02 0.000000e+00
4.818000e-01 2.920000e-02 0.000000e+00
4.964000e-01 2.920000e-02 0.000000e+00
5.110000e-01 2.920000e-02 0.000000e+00
5.256000e-01 2.920000e-02 0.000000e+00
5.402000e-01 2.920000e-02 0.000000e+00
5.548000e-01 2.920000e-02 0.000000e+00
5.694000e-01 2.920000e-02 0.000000e+00
5.840000e-01 2.920000e-02 0.000000e+00
0.000000e+00 4.380000e-02 0.000000e+00
1.460000e-02 4.380000e-02 0.000000e+00
2.920000e-02 4.380000e-02 0.000000e+00
4.380000e-02 4.380000e-02 0.000000e+00
5.840000e-02 4.380000e-02 0.000000e+00
7.300000e-02 4.380000e-02 0.000000e+00
8.760000e-02 4.380000e-02 0.000000e+00
1.022000e-01 4.380000e-02 0.000000e+00
1.168000e-01 4.380000e-02 0.000000e+00
1.314000e-01 4.380000e-02 0.000000e+00
1.460000e-01 4.380000e-02 0.000000e+00
1.606000e-01 4.380000e-02 0.000000e+00
1.752000e-01 4.380000e-02 0.000000e+00
1.898000e-01 4.380000e-02 0.000000e+00
2.044000e-01 4.380000e-02 0.000000e+00
2.190000e-01 4.380000e-02 0.000000e+00
2.336000e-01 4.380000e-02 0.000000e+00
2.482000e-01 4.380000e-02 0.000000e+00
2.628000e-01 4.380000e-02 0.000000e+00
2.774000e-01 4.380000e-02 0.000000e+00
2.920000e-01 4.380000e-02 0.000000e+00
3.066000e-01 4.380000e-02 0.000000e+00
3.212000e-01 4.380000e-02 0.000000e+00
3.358000e-01 4.380000e-02 0.000000e+00
3.504000e-01 4.380000e-02 0.000000e+00
3.650000e-01 4.380000e-02 0.000000e+00
3.796000e-01 4.380000e-02 0.000000e+00
3.942000e-01 4.380000e-02 0.000000e+00
4.088000e-01 4.380000e-02 0.000000e+00
4.234000e-01 4.380000e-02 0.000000e+00
4.380000e-01 4.380000e-02 0.000000e+00
4.526000e-01 4.380000e-02 0.000000e+00
4.672000e-01 4.380000e-02 0.000000e+00
4.818000e-01 4.380000e-02 0.000000e+00
4.964000e-01 4.380000e-02 0.000000e+00
5.110000e-01 4.380000e-02 0.000000e+00
5.256000e-01 4.380000e-02 0.000000e+00
5.402000e-01 4.380000e-02 0.000000e+00
5.548000e-01 4.380000e-02 0.000000e+00
5.694000e-01 4.380000e-02 0.000000e+00
5.840000e-01 4.380000e-02 0.000000e+00
0.000000e+00 5.840000e-02 0.000000e+00
1.460000e-02 5.840000e-02 0.000000e+00
2.920000e-02 5.840000e-02 0.000000e+00
4.380000e-02 5.840000e-02 0.000000e+00
5.840000e-02 5.840000e-02 0.000000e+00
7.300000e-02 5.840000e-02 0.000000e+00
8.760000e-02 5.840000e-02 0.000000e+00
1.022000e-01 5.840000e-02 0.000000e+00
1.168000e-01 5.840000e-02 0.000000e+00
1.314000e-01 5.840000e-02 0.000000e+00
1.460000e-01 5.840000e-02 0.000000e+00
1.606000e-01 5.840000e-02 0.000000e+00
1.752000e-01 5.840000e-02 0.000000e+00
1.898000e-01 5.840000e-02 0.000000e+00
2.044000e-01 5.840000e-02 0.000000e+00
2.190000e-01 5.840000e-02 0.000000e+00
2.336000e-01 5.840000e-02 0.000000e+00
2.482000e-01 5.840000e-02 0.000000e+00
2.628000e-01 5.840000e-02 0.000000e+00
2.774000e-01 5.840000e-02 0.000000e+00
2.920000e-01 5.840000e-02 0.000000e+00
3.066000e-01 5.840000e-02 0.000000e+00
3.212000e-01 5.840000e-02 0.000000e+00
3.358000e-01 5.840000e-02 0.000000e+00
3.504000e-01 5.840000e-02 0.000000e+00
3.650000e-01 5.840000e-02 0.000000e+00
3.796000e-01 5.840000e-02 0.000000e+00
3.942000e-01 5.840000e-02 0.000000e+00
4.088000e-01 5.840000e-02 0.000000e+00
4.234000e-01 5.840000e-02 0.000000e+00
4.380000e-01 5.840000e-02 0.000000e+00
4.526000e-01 5.840000e-02 0.000000e+00
4.672000e-01 5.840000e-02 0.000000e+00
4.818000e-01 5.840000e-02 0.000000e+00
4.964000e-01 5.840000e-02 0.000000e+00
5.110000e-01 5.840000e-02 0.000000e+00
5.256000e-01 5.840000e-02 0.000000e+00
5.402000e-01 5.840000e-02 0.000000e+00
5.548000e-01 5.840000e-02 0.000000e+00
5.694000e-01 5.840000e-02 0.000000e+00
5.840000e-01 5.840000e-02 0.000000e+00
0.000000e+00 7.300000e-02 0.000000e+00
1.460000e-02 7.300000e-02 0.000000e+00
2.920000e-02 7.300000e-02 0.000000e+00
4.380000e-02 7.300000e-02 0.000000e+00
5.840000e-02 7.300000e-02 0.000000e+00
7.300000e-02 7.300000e-02 0.000000e+00
8.760000e-02 7.300000e-02 0.000000e+00
1.022000e-01 7.300000e-02 0.000000e+00
1.168000e-01 7.300000e-02 0.000000e+00
1.314000e-01 7.300000e-02 0.000000e+00
1.460000e-01 7.300000e-02 0.000000e+00
1.606000e-01 7.300000e-02 0.000000e+00
1.752000e-01 7.300000e-02 0.000000e+00
1.898000e-01 7.300000e-02 0.000000e+00
2.044000e-01 7.300000e-02 0.000000e+00
2.190000e-01 7.300000e-02 0.000000e+00
2.336000e-01 7.300000e-02 0.000000e+00
2.482000e-01 7.300000e-02 0.000000e+00
2.628000e-01 7.300000e-02 0.000000e+00
2.774000e-01 7.300000e-02 0.000000e+00
2.920000e-01 7.300000e-02 0.000000e+00
3.066000e-01 7.300000e-02 0.000000e+00
3.212000e-01 7.300000e-02 0.000000e+00
3.358000e-01 7.300000e-02 0.000000e+00
3.504000e-01 7.300000e-02 0.000000e+00
3.650000e-01 7.300000e-02 0.000000e+00
3.796000e-01 7.300000e-02 0.000000e+00
3.942000e-01 7.300000e-02 0.000000e+00
4.088000e-01 7.300000e-02 0.000000e+00
4.234000e-01 7.300000e-02 0.000000e+00
4.380000e-01 7.300000e-02 0.000000e+00
4.526000e-01 7.300000e-02 0.000000e+00
4.672000e-01 7.300000e-02 0.000000e+00
4.818000e-01 7.300000e-02 0.000000e+00
4.964000e-01 7.300000e-02 0.000000e+00
5.110000e-01 7.300000e-02 0.000000e+00
5.256000e-01 7.300000e-02 0.000000e+00
5.402000e-01 7.300000e-02 0.000000e+00
5.548000e-01 7.300000e-02 0.000000e+00
5.694000e-01 7.300000e-02 0.000000e+00
5.840000e-01 7.300000e-02 0.000000e+00
0.000000e+00 8.760000e-02 0.000000e+00
1.460000e-02 8.760000e-02 0.000000e+00
2.920000e-02 8.760000e-02 0.000000e+00
4.380000e-02 8.760000e-02 0.000000e+00
5.840000e-02 8.760000e-02 0.000000e+00
7.300000e-02 8.760000e-02 0.000000e+00
8.760000e-02 8.760000e-02 0.000000e+00
1.022000e-01 8.760000e-02 0.000000e+00
[...]
POINT_DATA 11767
VECTORS Velocity float
0.000000e+00 0.000000e+00 0.000000e+00
7.126132e-04 0.000000e+00 0.000000e+00
-6.557004e-03 0.000000e+00 0.000000e+00
-1.300007e-02 0.000000e+00 0.000000e+00
-1.685578e-02 0.000000e+00 0.000000e+00
-1.618665e-02 0.000000e+00 0.000000e+00
-1.162359e-02 0.000000e+00 0.000000e+00
-3.951845e-03 0.000000e+00 0.000000e+00
5.628700e-03 0.000000e+00 0.000000e+00
1.629489e-02 0.000000e+00 0.000000e+00
2.701102e-02 0.000000e+00 0.000000e+00
3.763400e-02 0.000000e+00 0.000000e+00
4.809476e-02 0.000000e+00 0.000000e+00
5.819819e-02 0.000000e+00 0.000000e+00
6.728673e-02 0.000000e+00 0.000000e+00
7.472606e-02 0.000000e+00 0.000000e+00
7.990808e-02 0.000000e+00 0.000000e+00
8.262303e-02 0.000000e+00 0.000000e+00
8.313755e-02 0.000000e+00 0.000000e+00
8.228430e-02 0.000000e+00 0.000000e+00
8.102104e-02 0.000000e+00 0.000000e+00
8.015643e-02 0.000000e+00 0.000000e+00
7.999156e-02 0.000000e+00 0.000000e+00
8.041522e-02 0.000000e+00 0.000000e+00
8.108511e-02 0.000000e+00 0.000000e+00
8.181824e-02 0.000000e+00 0.000000e+00
8.254886e-02 0.000000e+00 0.000000e+00
8.336769e-02 0.000000e+00 0.000000e+00
8.427563e-02 0.000000e+00 0.000000e+00
8.534753e-02 0.000000e+00 0.000000e+00
8.640827e-02 0.000000e+00 0.000000e+00
8.726806e-02 0.000000e+00 0.000000e+00
8.744392e-02 0.000000e+00 0.000000e+00
8.637578e-02 0.000000e+00 0.000000e+00
8.387749e-02 0.000000e+00 0.000000e+00
7.967207e-02 0.000000e+00 0.000000e+00
7.363124e-02 0.000000e+00 0.000000e+00
6.654204e-02 0.000000e+00 0.000000e+00
5.405767e-02 0.000000e+00 0.000000e+00
4.001391e-02 0.000000e+00 0.000000e+00
0.000000e+00 0.000000e+00 0.000000e+00
0.000000e+00 -4.332915e-14 0.000000e+00
7.126132e-04 2.621812e-15 0.000000e+00
-6.557004e-03 6.077373e-15 0.000000e+00
-1.300007e-02 1.398323e-14 0.000000e+00
-1.685578e-02 -1.063696e-14 0.000000e+00
-1.618665e-02 1.412431e-14 0.000000e+00
-1.162359e-02 -1.615421e-14 0.000000e+00
-3.951845e-03 2.559613e-14 0.000000e+00
5.628700e-03 3.372705e-15 0.000000e+00
1.629489e-02 4.535201e-15 0.000000e+00
2.701102e-02 3.647936e-14 0.000000e+00
3.763400e-02 -2.562185e-14 0.000000e+00
4.809476e-02 7.666287e-14 0.000000e+00
5.819819e-02 5.611199e-15 0.000000e+00
6.728673e-02 1.623551e-14 0.000000e+00
7.472606e-02 6.419813e-14 0.000000e+00
7.990808e-02 2.360203e-14 0.000000e+00
8.262303e-02 6.400917e-14 0.000000e+00
8.313755e-02 6.912367e-14 0.000000e+00
8.228430e-02 2.666074e-14 0.000000e+00
8.102104e-02 6.739356e-14 0.000000e+00
8.015643e-02 1.500780e-14 0.000000e+00
7.999156e-02 2.917342e-14 0.000000e+00
8.041522e-02 -2.113996e-14 0.000000e+00
8.108511e-02 -2.860996e-14 0.000000e+00
8.181824e-02 2.085729e-14 0.000000e+00
8.254886e-02 -9.133204e-14 0.000000e+00
8.336769e-02 2.633496e-14 0.000000e+00
8.427563e-02 -2.534393e-14 0.000000e+00
8.534753e-02 -1.430268e-14 0.000000e+00
8.640827e-02 -1.712540e-14 0.000000e+00
8.726806e-02 3.357189e-16 0.000000e+00
8.744392e-02 -4.981487e-14 0.000000e+00
8.637578e-02 3.606805e-14 0.000000e+00
8.387749e-02 -3.845420e-14 0.000000e+00
7.967207e-02 4.331150e-14 0.000000e+00
7.363124e-02 -4.668930e-14 0.000000e+00
6.654204e-02 5.412807e-14 0.000000e+00
5.405767e-02 -7.012490e-14 0.000000e+00
4.001391e-02 6.967866e-14 0.000000e+00
0.000000e+00 1.131820e-14 0.000000e+00
0.000000e+00 -1.026865e-13 0.000000e+00
7.126132e-04 4.285673e-15 0.000000e+00
-6.557004e-03 6.690854e-15 0.000000e+00
-1.300007e-02 8.389559e-15 0.000000e+00
-1.685578e-02 -1.589527e-14 0.000000e+00
-1.618665e-02 1.675275e-14 0.000000e+00
-1.162359e-02 -1.025231e-14 0.000000e+00
-3.951845e-03 2.026540e-14 0.000000e+00
5.628700e-03 2.681131e-14 0.000000e+00
1.629489e-02 -6.584876e-15 0.000000e+00
2.701102e-02 7.188193e-14 0.000000e+00
3.763400e-02 -4.776833e-14 0.000000e+00
4.809476e-02 1.194462e-13 0.000000e+00
5.819819e-02 2.558419e-14 0.000000e+00
6.728673e-02 3.130929e-14 0.000000e+00
7.472606e-02 1.026332e-13 0.000000e+00
7.990808e-02 5.774765e-14 0.000000e+00
8.262303e-02 9.493605e-14 0.000000e+00
8.313755e-02 1.143723e-13 0.000000e+00
8.228430e-02 5.641193e-14 0.000000e+00
8.102104e-02 1.188608e-13 0.000000e+00
8.015643e-02 2.418120e-14 0.000000e+00
7.999156e-02 7.788533e-14 0.000000e+00
8.041522e-02 -1.710760e-14 0.000000e+00
8.108511e-02 -9.807830e-15 0.000000e+00
8.181824e-02 3.560445e-14 0.000000e+00
8.254886e-02 -7.144101e-14 0.000000e+00
8.336769e-02 4.059467e-14 0.000000e+00
8.427563e-02 -1.369577e-14 0.000000e+00
8.534753e-02 -7.556874e-15 0.000000e+00
8.640827e-02 -2.003301e-14 0.000000e+00
8.726806e-02 8.192458e-15 0.000000e+00
8.744392e-02 -4.190089e-14 0.000000e+00
8.637578e-02 2.196370e-14 0.000000e+00
8.387749e-02 -1.099491e-14 0.000000e+00
7.967207e-02 1.515859e-14 0.000000e+00
7.363124e-02 -1.866491e-14 0.000000e+00
6.654204e-02 2.141717e-14 0.000000e+00
5.405767e-02 -1.916989e-14 0.000000e+00
4.001391e-02 3.762339e-14 0.000000e+00
0.000000e+00 -7.124282e-15 0.000000e+00
0.000000e+00 -6.350449e-14 0.000000e+00
7.126132e-04 1.616088e-14 0.000000e+00
-6.557004e-03 8.948791e-15 0.000000e+00
-1.300007e-02 5.989333e-15 0.000000e+00
-1.685578e-02 -1.789237e-14 0.000000e+00
-1.618665e-02 1.959207e-14 0.000000e+00
-1.162359e-02 -1.090427e-14 0.000000e+00
-3.951845e-03 2.760254e-14 0.000000e+00
5.628700e-03 2.822478e-14 0.000000e+00
1.629489e-02 -3.581119e-15 0.000000e+00
2.701102e-02 8.427182e-14 0.000000e+00
3.763400e-02 -4.506781e-14 0.000000e+00
4.809476e-02 1.350989e-13 0.000000e+00
5.819819e-02 3.414837e-14 0.000000e+00
6.728673e-02 3.715931e-14 0.000000e+00
7.472606e-02 1.192552e-13 0.000000e+00
7.990808e-02 7.362323e-14 0.000000e+00
8.262303e-02 1.142888e-13 0.000000e+00
8.313755e-02 1.339878e-13 0.000000e+00
8.228430e-02 7.428569e-14 0.000000e+00
8.102104e-02 1.427767e-13 0.000000e+00
8.015643e-02 5.525715e-14 0.000000e+00
7.999156e-02 1.054230e-13 0.000000e+00
8.041522e-02 2.583321e-14 0.000000e+00
8.108511e-02 1.276708e-14 0.000000e+00
8.181824e-02 7.932462e-14 0.000000e+00
8.254886e-02 -5.775433e-14 0.000000e+00
8.336769e-02 7.738105e-14 0.000000e+00
8.427563e-02 6.860757e-15 0.000000e+00
8.534753e-02 1.158335e-14 0.000000e+00
8.640827e-02 -7.006363e-15 0.000000e+00
8.726806e-02 1.765530e-14 0.000000e+00
8.744392e-02 -3.307281e-14 0.000000e+00
8.637578e-02 3.521847e-14 0.000000e+00
8.387749e-02 -9.368037e-15 0.000000e+00
7.967207e-02 3.789510e-14 0.000000e+00
7.363124e-02 -2.668390e-14 0.000000e+00
6.654204e-02 4.468500e-14 0.000000e+00
5.405767e-02 -4.851515e-14 0.000000e+00
4.001391e-02 7.510609e-14 0.000000e+00
0.000000e+00 -5.908299e-14 0.000000e+00
0.000000e+00 -7.134020e-14 0.000000e+00
7.126132e-04 -5.209096e-15 0.000000e+00
-6.557004e-03 4.536359e-15 0.000000e+00
-1.300007e-02 -3.646833e-15 0.000000e+00
-1.685578e-02 -1.547422e-14 0.000000e+00
-1.618665e-02 1.787173e-14 0.000000e+00
-1.162359e-02 -1.048650e-14 0.000000e+00
-3.951845e-03 2.334507e-14 0.000000e+00
5.628700e-03 3.162337e-14 0.000000e+00
1.629489e-02 2.316158e-15 0.000000e+00
2.701102e-02 7.866604e-14 0.000000e+00
3.763400e-02 -4.400986e-14 0.000000e+00
4.809476e-02 1.208537e-13 0.000000e+00
5.819819e-02 1.907623e-14 0.000000e+00
6.728673e-02 2.663571e-14 0.000000e+00
7.472606e-02 9.031324e-14 0.000000e+00
7.990808e-02 5.466538e-14 0.000000e+00
8.262303e-02 8.776533e-14 0.000000e+00
8.313755e-02 1.092957e-13 0.000000e+00
8.228430e-02 4.787179e-14 0.000000e+00
8.102104e-02 1.206283e-13 0.000000e+00
8.015643e-02 3.544434e-14 0.000000e+00
7.999156e-02 9.447216e-14 0.000000e+00
8.041522e-02 1.074173e-14 0.000000e+00
8.108511e-02 1.098439e-14 0.000000e+00
8.181824e-02 6.840810e-14 0.000000e+00
8.254886e-02 -5.452436e-14 0.000000e+00
8.336769e-02 6.658019e-14 0.000000e+00
8.427563e-02 7.797094e-16 0.000000e+00
8.534753e-02 6.290771e-15 0.000000e+00
8.640827e-02 -1.148240e-14 0.000000e+00
8.726806e-02 1.616322e-14 0.000000e+00
8.744392e-02 -3.745599e-14 0.000000e+00
8.637578e-02 2.810552e-14 0.000000e+00
8.387749e-02 -8.953099e-15 0.000000e+00
7.967207e-02 2.207032e-14 0.000000e+00
7.363124e-02 -1.724074e-14 0.000000e+00
6.654204e-02 2.292681e-14 0.000000e+00
5.405767e-02 -2.475091e-14 0.000000e+00
4.001391e-02 3.225250e-14 0.000000e+00
0.000000e+00 -6.033572e-14 0.000000e+00
0.000000e+00 -8.679764e-14 0.000000e+00
7.126132e-04 -4.333615e-14 0.000000e+00
-6.557004e-03 -1.277718e-14 0.000000e+00
-1.300007e-02 -5.198823e-15 0.000000e+00
-1.685578e-02 -2.039985e-14 0.000000e+00
-1.618665e-02 8.235700e-15 0.000000e+00
-1.162359e-02 -1.833459e-14 0.000000e+00
-3.951845e-03 2.313148e-14 0.000000e+00
5.628700e-03 2.421753e-15 0.000000e+00
1.629489e-02 -1.889864e-15 0.000000e+00
2.701102e-02 2.835381e-14 0.000000e+00
3.763400e-02 -2.607597e-14 0.000000e+00
4.809476e-02 6.424842e-14 0.000000e+00
5.819819e-02 -8.850182e-15 0.000000e+00
6.728673e-02 1.611284e-15 0.000000e+00
7.472606e-02 4.898724e-14 0.000000e+00
7.990808e-02 7.956425e-15 0.000000e+00
8.262303e-02 4.929202e-14 0.000000e+00
8.313755e-02 5.332630e-14 0.000000e+00
8.228430e-02 1.332437e-14 0.000000e+00
8.102104e-02 5.307586e-14 0.000000e+00
8.015643e-02 1.377120e-14 0.000000e+00
7.999156e-02 2.392293e-14 0.000000e+00
8.041522e-02 -9.461813e-15 0.000000e+00
8.108511e-02 -2.263458e-14 0.000000e+00
8.181824e-02 3.080879e-14 0.000000e+00
8.254886e-02 -8.363735e-14 0.000000e+00
8.336769e-02 2.866507e-14 0.000000e+00
8.427563e-02 -2.308143e-14 0.000000e+00
8.534753e-02 -1.397109e-14 0.000000e+00
8.640827e-02 -2.828236e-14 0.000000e+00
8.726806e-02 -2.148679e-15 0.000000e+00
8.744392e-02 -5.571062e-14 0.000000e+00
8.637578e-02 3.110292e-14 0.000000e+00
8.387749e-02 -3.854335e-14 0.000000e+00
7.967207e-02 3.980498e-14 0.000000e+00
7.363124e-02 -5.158911e-14 0.000000e+00
6.654204e-02 5.151393e-14 0.000000e+00
5.405767e-02 -8.033068e-14 0.000000e+00
4.001391e-02 7.484827e-14 0.000000e+00
0.000000e+00 3.719617e-14 0.000000e+00
0.000000e+00 0.000000e+00 0.000000e+00
7.126132e-04 0.000000e+00 0.000000e+00
-6.557004e-03 0.000000e+00 0.000000e+00
-1.300007e-02 0.000000e+00 0.000000e+00
-1.685578e-02 0.000000e+00 0.000000e+00
-1.618665e-02 0.000000e+00 0.000000e+00
-1.162359e-02 0.000000e+00 0.000000e+00
-3.951845e-03 0.000000e+00 0.000000e+00
5.628700e-03 0.000000e+00 0.000000e+00
1.629489e-02 0.000000e+00 0.000000e+00
2.701102e-02 0.000000e+00 0.000000e+00
3.763400e-02 0.000000e+00 0.000000e+00
4.809476e-02 0.000000e+00 0.000000e+00
5.819819e-02 0.000000e+00 0.000000e+00
6.728673e-02 0.000000e+00 0.000000e+00
7.472606e-02 0.000000e+00 0.000000e+00
7.990808e-02 0.000000e+00 0.000000e+00
8.262303e-02 0.000000e+00 0.000000e+00
8.313755e-02 0.000000e+00 0.000000e+00
8.228430e-02 0.000000e+00 0.000000e+00
8.102104e-02 0.000000e+00 0.000000e+00
8.015643e-02 0.000000e+00 0.000000e+00
7.999156e-02 0.000000e+00 0.000000e+00
8.041522e-02 0.000000e+00 0.000000e+00
8.108511e-02 0.000000e+00 0.000000e+00
8.181824e-02 0.000000e+00 0.000000e+00
8.254886e-02 0.000000e+00 0.000000e+00
8.336769e-02 0.000000e+00 0.000000e+00
8.427563e-02 0.000000e+00 0.000000e+00
8.534753e-02 0.000000e+00 0.000000e+00
8.640827e-02 0.000000e+00 0.000000e+00
8.726806e-02 0.000000e+00 0.000000e+00
8.744392e-02 0.000000e+00 0.000000e+00
8.637578e-02 0.000000e+00 0.000000e+00
8.387749e-02 0.000000e+00 0.000000e+00
7.967207e-02 0.000000e+00 0.000000e+00
7.363124e-02 0.000000e+00 0.000000e+00
6.654204e-02 0.000000e+00 0.000000e+00
5.405767e-02 0.000000e+00 0.000000e+00
4.001391e-02 0.000000e+00 0.000000e+00
0.000000e+00 0.000000e+00 0.000000e+00
0.000000e+00 0.000000e+00 2.207029e-03
-1.869603e-02 0.000000e+00 5.746742e-03
-3.388027e-02 0.000000e+00 7.583994e-03
-4.589980e-02 0.000000e+00 4.298993e-03
-5.250787e-02 0.000000e+00 1.630379e-04
-5.453871e-02 0.000000e+00 -4.263187e-03
-5.286798e-02 0.000000e+00 -7.571991e-03
-4.899906e-02 0.000000e+00 -9.838006e-03
-4.361543e-02 0.000000e+00 -1.123413e-02
-3.723251e-02 0.000000e+00 -1.190236e-02
-2.988050e-02 0.000000e+00 -1.209432e-02
-2.187387e-02 0.000000e+00 -1.222130e-02
-1.335065e-02 0.000000e+00 -1.220074e-02
-4.750406e-03 0.000000e+00 -1.172901e-02
3.534988e-03 0.000000e+00 -1.066706e-02
1.106741e-02 0.000000e+00 -9.006456e-03
1.732585e-02 0.000000e+00 -6.888548e-03
2.194700e-02 0.000000e+00 -4.685243e-03
2.477648e-02 0.000000e+00 -2.882143e-03
2.603604e-02 0.000000e+00 -1.836294e-03
2.619179e-02 0.000000e+00 -1.633476e-03
2.595111e-02 0.000000e+00 -2.009114e-03
2.571091e-02 0.000000e+00 -2.550711e-03
2.579901e-02 0.000000e+00 -2.951560e-03
2.622987e-02 0.000000e+00 -3.182274e-03
2.713639e-02 0.000000e+00 -3.327075e-03
2.839694e-02 0.000000e+00 -3.497453e-03
3.011746e-02 0.000000e+00 -3.680150e-03
3.212291e-02 0.000000e+00 -3.899779e-03
3.454266e-02 0.000000e+00 -4.057782e-03
3.708417e-02 0.000000e+00 -4.061265e-03
3.979621e-02 0.000000e+00 -3.762960e-03
4.208654e-02 0.000000e+00 -2.940689e-03
4.379674e-02 0.000000e+00 -1.670140e-03
4.402589e-02 0.000000e+00 -1.680092e-04
4.260402e-02 0.000000e+00 1.968358e-03
3.893912e-02 0.000000e+00 2.908467e-03
3.352798e-02 0.000000e+00 6.792289e-03
2.550478e-02 0.000000e+00 7.565158e-03
1.547645e-02 0.000000e+00 1.917083e-02
0.000000e+00 0.000000e+00 3.444599e-02
0.000000e+00 1.777051e-14 2.207029e-03
-1.869603e-02 -6.475418e-15 5.746742e-03
-3.388027e-02 -8.691135e-15 7.583994e-03
-4.589980e-02 1.165491e-15 4.298993e-03
-5.250787e-02 -1.164625e-14 1.630379e-04
-5.453871e-02 9.882782e-16 -4.263187e-03
-5.286798e-02 -1.185478e-14 -7.571991e-03
-4.899906e-02 2.914891e-15 -9.838006e-03
-4.361543e-02 -1.890470e-14 -1.123413e-02
-3.723251e-02 5.688001e-15 -1.190236e-02
-2.988050e-02 -9.552836e-15 -1.209432e-02
-2.187387e-02 1.643291e-14 -1.222130e-02
-1.335065e-02 1.226005e-14 -1.220074e-02
-4.750406e-03 -4.358206e-15 -1.172901e-02
3.534988e-03 8.115055e-14 -1.066706e-02
1.106741e-02 3.735458e-14 -9.006456e-03
1.732585e-02 9.559868e-14 -6.888548e-03
2.194700e-02 1.759257e-13 -4.685243e-03
2.477648e-02 1.395282e-13 -2.882143e-03
2.603604e-02 1.921936e-13 -1.836294e-03
2.619179e-02 2.041555e-13 -1.633476e-03
2.595111e-02 1.607667e-13 -2.009114e-03
2.571091e-02 1.855343e-13 -2.550711e-03
2.579901e-02 1.118320e-13 -2.951560e-03
2.622987e-02 1.767906e-13 -3.182274e-03
2.713639e-02 7.612597e-14 -3.327075e-03
2.839694e-02 1.076824e-13 -3.497453e-03
3.011746e-02 9.052310e-14 -3.680150e-03
3.212291e-02 4.442069e-14 -3.899779e-03
3.454266e-02 5.624151e-14 -4.057782e-03
3.708417e-02 2.007835e-14 -4.061265e-03
3.979621e-02 5.460979e-15 -3.762960e-03
4.208654e-02 1.100319e-14 -2.940689e-03
4.379674e-02 6.215830e-14 -1.670140e-03
4.402589e-02 -9.052501e-15 -1.680092e-04
4.260402e-02 5.334944e-14 1.968358e-03
3.893912e-02 -4.130306e-14 2.908467e-03
3.352798e-02 4.805673e-14 6.792289e-03
2.550478e-02 -9.527918e-14 7.565158e-03
1.547645e-02 7.839257e-14 1.917083e-02
0.000000e+00 -7.767331e-15 3.444599e-02
0.000000e+00 1.536398e-15 2.207029e-03
-1.869603e-02 -3.145083e-14 5.746742e-03
-3.388027e-02 -1.510617e-14 7.583994e-03
-4.589980e-02 7.041337e-15 4.298993e-03
-5.250787e-02 -9.505231e-15 1.630379e-04
-5.453871e-02 2.090854e-14 -4.263187e-03
-5.286798e-02 -5.983311e-15 -7.571991e-03
-4.899906e-02 2.653417e-14 -9.838006e-03
-4.361543e-02 -9.034627e-15 -1.123413e-02
-3.723251e-02 2.464135e-14 -1.190236e-02
-2.988050e-02 -2.099636e-16 -1.209432e-02
-2.187387e-02 2.782674e-14 -1.222130e-02
-1.335065e-02 3.506498e-14 -1.220074e-02
-4.750406e-03 -1.292444e-14 -1.172901e-02
3.534988e-03 1.132376e-13 -1.066706e-02
1.106741e-02 3.498493e-14 -9.006456e-03
1.732585e-02 9.444947e-14 -6.888548e-03
2.194700e-02 1.741887e-13 -4.685243e-03
2.477648e-02 1.513879e-13 -2.882143e-03
2.603604e-02 2.065521e-13 -1.836294e-03
2.619179e-02 2.324966e-13 -1.633476e-03
2.595111e-02 1.802079e-13 -2.009114e-03
2.571091e-02 2.293579e-13 -2.550711e-03
2.579901e-02 1.158011e-13 -2.951560e-03
2.622987e-02 2.198539e-13 -3.182274e-03
2.713639e-02 8.839750e-14 -3.327075e-03
2.839694e-02 1.468764e-13 -3.497453e-03
3.011746e-02 8.840385e-14 -3.680150e-03
3.212291e-02 7.127350e-14 -3.899779e-03
3.454266e-02 5.910933e-14 -4.057782e-03
3.708417e-02 4.073108e-14 -4.061265e-03
3.979621e-02 2.027023e-14 -3.762960e-03
4.208654e-02 2.460632e-15 -2.940689e-03
4.379674e-02 6.834779e-14 -1.670140e-03
4.402589e-02 -7.342344e-15 -1.680092e-04
4.260402e-02 2.769883e-14 1.968358e-03
3.893912e-02 -1.180453e-14 2.908467e-03
3.352798e-02 2.056591e-14 6.792289e-03
2.550478e-02 -3.748458e-14 7.565158e-03
1.547645e-02 4.239459e-14 1.917083e-02
0.000000e+00 2.662617e-14 3.444599e-02
0.000000e+00 2.475005e-14 2.207029e-03
-1.869603e-02 -2.686322e-14 5.746742e-03
-3.388027e-02 -1.578168e-14 7.583994e-03
-4.589980e-02 1.166374e-14 4.298993e-03
-5.250787e-02 -1.963674e-15 1.630379e-04
-5.453871e-02 3.046280e-14 -4.263187e-03
-5.286798e-02 -5.887999e-16 -7.571991e-03
-4.899906e-02 3.361654e-14 -9.838006e-03
-4.361543e-02 -2.467625e-15 -1.123413e-02
-3.723251e-02 3.782217e-14 -1.190236e-02
-2.988050e-02 8.907125e-15 -1.209432e-02
-2.187387e-02 2.914235e-14 -1.222130e-02
-1.335065e-02 3.411178e-14 -1.220074e-02
-4.750406e-03 -1.230506e-14 -1.172901e-02
3.534988e-03 1.159876e-13 -1.066706e-02
1.106741e-02 1.858401e-14 -9.006456e-03
1.732585e-02 6.141050e-14 -6.888548e-03
2.194700e-02 1.282048e-13 -4.685243e-03
2.477648e-02 8.780950e-14 -2.882143e-03
2.603604e-02 1.575944e-13 -1.836294e-03
2.619179e-02 1.855473e-13 -1.633476e-03
2.595111e-02 1.392957e-13 -2.009114e-03
2.571091e-02 1.953430e-13 -2.550711e-03
2.579901e-02 7.922682e-14 -2.951560e-03
2.622987e-02 1.959329e-13 -3.182274e-03
2.713639e-02 6.383053e-14 -3.327075e-03
2.839694e-02 1.214184e-13 -3.497453e-03
3.011746e-02 8.532695e-14 -3.680150e-03
3.212291e-02 4.560504e-14 -3.899779e-03
3.454266e-02 6.102098e-14 -4.057782e-03
3.708417e-02 2.154072e-14 -4.061265e-03
3.979621e-02 2.449709e-14 -3.762960e-03
4.208654e-02 -2.693054e-15 -2.940689e-03
4.379674e-02 8.748131e-14 -1.670140e-03
4.402589e-02 -1.652119e-14 -1.680092e-04
4.260402e-02 4.562530e-14 1.968358e-03
3.893912e-02 -4.707921e-14 2.908467e-03
3.352798e-02 3.842383e-14 6.792289e-03
2.550478e-02 -9.220979e-14 7.565158e-03
1.547645e-02 8.819673e-14 1.917083e-02
0.000000e+00 -2.720356e-15 3.444599e-02
0.000000e+00 3.256367e-15 2.207029e-03
-1.869603e-02 -3.057207e-14 5.746742e-03
-3.388027e-02 -1.934548e-14 7.583994e-03
-4.589980e-02 5.086473e-15 4.298993e-03
-5.250787e-02 -5.251819e-16 1.630379e-04
-5.453871e-02 2.327662e-14 -4.263187e-03
-5.286798e-02 -4.924712e-15 -7.571991e-03
-4.899906e-02 2.928494e-14 -9.838006e-03
-4.361543e-02 -1.887874e-15 -1.123413e-02
-3.723251e-02 3.194033e-14 -1.190236e-02
-2.988050e-02 5.964149e-15 -1.209432e-02
-2.187387e-02 2.810915e-14 -1.222130e-02
-1.335065e-02 2.886726e-14 -1.220074e-02
-4.750406e-03 -1.582420e-14 -1.172901e-02
3.534988e-03 1.061695e-13 -1.066706e-02
1.106741e-02 1.765511e-14 -9.006456e-03
1.732585e-02 6.155973e-14 -6.888548e-03
2.194700e-02 1.209374e-13 -4.685243e-03
2.477648e-02 9.073942e-14 -2.882143e-03
2.603604e-02 1.453856e-13 -1.836294e-03
2.619179e-02 1.752085e-13 -1.633476e-03
2.595111e-02 1.274520e-13 -2.009114e-03
2.571091e-02 1.850431e-13 -2.550711e-03
2.579901e-02 7.496953e-14 -2.951560e-03
2.622987e-02 1.925790e-13 -3.182274e-03
2.713639e-02 6.393124e-14 -3.327075e-03
2.839694e-02 1.287054e-13 -3.497453e-03
3.011746e-02 8.034249e-14 -3.680150e-03
3.212291e-02 5.495373e-14 -3.899779e-03
3.454266e-02 5.956764e-14 -4.057782e-03
3.708417e-02 3.748024e-14 -4.061265e-03
3.979621e-02 2.819912e-14 -3.762960e-03
4.208654e-02 1.578217e-15 -2.940689e-03
4.379674e-02 7.177314e-14 -1.670140e-03
4.402589e-02 -1.562908e-14 -1.680092e-04
4.260402e-02 2.942643e-14 1.968358e-03
3.893912e-02 -2.350753e-14 2.908467e-03
3.352798e-02 2.049743e-14 6.792289e-03
2.550478e-02 -3.914365e-14 7.565158e-03
1.547645e-02 4.139113e-14 1.917083e-02
0.000000e+00 1.386196e-14 3.444599e-02
0.000000e+00 -3.529548e-14 2.207029e-03
-1.869603e-02 -4.814484e-14 5.746742e-03
-3.388027e-02 -1.785865e-14 7.583994e-03
-4.589980e-02 -4.034838e-15 4.298993e-03
-5.250787e-02 -1.046774e-14 1.630379e-04
-5.453871e-02 9.214857e-15 -4.263187e-03
-5.286798e-02 -7.588711e-15 -7.571991e-03
-4.899906e-02 8.710896e-15 -9.838006e-03
-4.361543e-02 -1.717638e-14 -1.123413e-02