# vtk DataFile Version 3.0
vtk output
ASCII
DATASET UNSTRUCTURED_GRID
POINTS 11767 float
0.000000e+00 0.000000e+00 0.000000e+00
1.460000e-02 0.000000e+00 0.000000e+00
2.920000e-02 0.000000e+00 0.000000e+00
4.380000e-02 0.000000e+00 0.000000e+00
5.840000e-02 0.000000e+00 0.000000e+00
7.300000e-02 0.000000e+00 0.000000e+00
8.760000e-02 0.000000e+00 0.000000e+00
1.022000e-01 0.000000e+00 0.000000e+00
1.168000e-01 0.000000e+00 0.000000e+00
1.314000e-01 0.000000e+00 0.000000e+00
1.460000e-01 0.000000e+00 0.000000e+00
1.606000e-01 0.000000e+00 0.000000e+00
1.752000e-01 0.000000e+00 0.000000e+00
1.898000e-01 0.000000e+00 0.000000e+00
2.044000e-01 0.000000e+00 0.000000e+00
2.190000e-01 0.000000e+00 0.000000e+00
2.336000e-01 0.000000e+00 0.000000e+00
2.482000e-01 0.000000e+00 0.000000e+00
2.628000e-01 0.000000e+00 0.000000e+00
2.774000e-01 0.000000e+00 0.000000e+00
2.920000e-01 0.000000e+00 0.000000e+00
3.066000e-01 0.000000e+00 0.000000e+00
3.212000e-01 0.000000e+00 0.000000e+00
3.358000e-01 0.000000e+00 0.000000e+00
3.504000e-01 0.000000e+00 0.000000e+00
3.650000e-01 0.000000e+00 0.000000e+00
3.796000e-01 0.000000e+00 0.000000e+00
3.942000e-01 0.000000e+00 0.000000e+00
4.088000e-01 0.000000e+00 0.000000e+00
4.234000e-01 0.000000e+00 0.000000e+00
4.380000e-01 0.000000e+00 0.000000e+00
4.526000e-01 0.000000e+00 0.000000e+00
4.672000e-01 0.000000e+00 0.000000e+00
4.818000e-01 0.000000e+00 0.000000e+00
4.964000e-01 0.000000e+00 0.000000e+00
5.110000e-01 0.000000e+00 0.000000e+00
5.256000e-01 0.000000e+00 0.000000e+00
5.402000e-01 0.000000e+00 0.000000e+00
5.548000e-01 0.000000e+00 0.000000e+00
5.694000e-01 0.000000e+00 0.000000e+00
5.840000e-01 0.000000e+00 0.000000e+00
0.000000e+00 1.460000e-02 0.000000e+00
1.460000e-02 1.460000e-02 0.000000e+00
2.920000e-02 1.460000e-02 0.000000e+00
4.380000e-02 1.460000e-02 0.000000e+00
5.840000e-02 1.460000e-02 0.000000e+00
7.300000e-02 1.460000e-02 0.000000e+00
8.760000e-02 1.460000e-02 0.000000e+00
1.022000e-01 1.460000e-02 0.000000e+00
1.168000e-01 1.460000e-02 0.000000e+00
1.314000e-01 1.460000e-02 0.000000e+00
1.460000e-01 1.460000e-02 0.000000e+00
1.606000e-01 1.460000e-02 0.000000e+00
1.752000e-01 1.460000e-02 0.000000e+00
1.898000e-01 1.460000e-02 0.000000e+00
2.044000e-01 1.460000e-02 0.000000e+00
2.190000e-01 1.460000e-02 0.000000e+00
2.336000e-01 1.460000e-02 0.000000e+00
2.482000e-01 1.460000e-02 0.000000e+00
2.628000e-01 1.460000e-02 0.000000e+00
2.774000e-01 1.460000e-02 0.000000e+00
2.920000e-01 1.460000e-02 0.000000e+00
3.066000e-01 1.460000e-02 0.000000e+00
3.212000e-01 1.460000e-02 0.000000e+00
3.358000e-01 1.460000e-02 0.000000e+00
3.504000e-01 1.460000e-02 0.000000e+00
3.650000e-01 1.460000e-02 0.000000e+00
3.796000e-01 1.460000e-02 0.000000e+00
3.942000e-01 1.460000e-02 0.000000e+00
4.088000e-01 1.460000e-02 0.000000e+00
4.234000e-01 1.460000e-02 0.000000e+00
4.380000e-01 1.460000e-02 0.000000e+00
4.526000e-01 1.460000e-02 0.000000e+00
4.672000e-01 1.460000e-02 0.000000e+00
4.818000e-01 1.460000e-02 0.000000e+00
4.964000e-01 1.460000e-02 0.000000e+00
5.110000e-01 1.460000e-02 0.000000e+00
5.256000e-01 1.460000e-02 0.000000e+00
5.402000e-01 1.460000e-02 0.000000e+00
5.548000e-01 1.460000e-02 0.000000e+00
5.694000e-01 1.460000e-02 0.000000e+00
5.840000e-01 1.460000e-02 0.000000e+00
0.000000e+00 2.920000e-02 0.000000e+00
1.460000e-02 2.920000e-02 0.000000e+00
2.920000e-02 2.920000e-02 0.000000e+00
4.380000e-02 2.920000e-02 0.000000e+00
5.840000e-02 2.920000e-02 0.000000e+00
7.300000e-02 2.920000e-02 0.000000e+00
8.760000e-02 2.920000e-02 0.000000e+00
1.022000e-01 2.920000e-02 0.000000e+00
1.168000e-01 2.920000e-02 0.000000e+00
1.314000e-01 2.920000e-02 0.000000e+00
1.460000e-01 2.920000e-02 0.000000e+00
1.606000e-01 2.920000e-02 0.000000e+00
1.752000e-01 2.920000e-02 0.000000e+00
1.898000e-01 2.920000e-02 0.000000e+00
2.044000e-01 2.920000e-02 0.000000e+00
2.190000e-01 2.920000e-02 0.000000e+00
2.336000e-01 2.920000e-02 0.000000e+00
2.482000e-01 2.920000e-02 0.000000e+00
2.628000e-01 2.920000e-02 0.000000e+00
2.774000e-01 2.920000e-02 0.000000e+00
2.920000e-01 2.920000e-02 0.000000e+00
3.066000e-01 2.920000e-02 0.000000e+00
3.212000e-01 2.920000e-02 0.000000e+00
3.358000e-01 2.920000e-02 0.000000e+00
3.504000e-01 2.920000e-02 0.000000e+00
3.650000e-01 2.920000e-02 0.000000e+00
3.796000e-01 2.920000e-02 0.000000e+00
3.942000e-01 2.920000e-02 0.000000e+00
4.088000e-01 2.920000e-02 0.000000e+00
4.234000e-01 2.920000e-02 0.000000e+00
4.380000e-01 2.920000e-02 0.000000e+00
4.526000e-01 2.920000e-02 0.000000e+00
4.672000e-01 2.920000e-02 0.000000e+00
4.818000e-01 2.920000e-02 0.000000e+00
4.964000e-01 2.920000e-02 0.000000e+00
5.110000e-01 2.920000e-02 0.000000e+00
5.256000e-01 2.920000e-02 0.000000e+00
5.402000e-01 2.920000e-02 0.000000e+00
5.548000e-01 2.920000e-02 0.000000e+00
5.694000e-01 2.920000e-02 0.000000e+00
5.840000e-01 2.920000e-02 0.000000e+00
0.000000e+00 4.380000e-02 0.000000e+00
1.460000e-02 4.380000e-02 0.000000e+00
2.920000e-02 4.380000e-02 0.000000e+00
4.380000e-02 4.380000e-02 0.000000e+00
5.840000e-02 4.380000e-02 0.000000e+00
7.300000e-02 4.380000e-02 0.000000e+00
8.760000e-02 4.380000e-02 0.000000e+00
1.022000e-01 4.380000e-02 0.000000e+00
1.168000e-01 4.380000e-02 0.000000e+00
1.314000e-01 4.380000e-02 0.000000e+00
1.460000e-01 4.380000e-02 0.000000e+00
1.606000e-01 4.380000e-02 0.000000e+00
1.752000e-01 4.380000e-02 0.000000e+00
1.898000e-01 4.380000e-02 0.000000e+00
2.044000e-01 4.380000e-02 0.000000e+00
2.190000e-01 4.380000e-02 0.000000e+00
2.336000e-01 4.380000e-02 0.000000e+00
2.482000e-01 4.380000e-02 0.000000e+00
2.628000e-01 4.380000e-02 0.000000e+00
2.774000e-01 4.380000e-02 0.000000e+00
2.920000e-01 4.380000e-02 0.000000e+00
3.066000e-01 4.380000e-02 0.000000e+00
3.212000e-01 4.380000e-02 0.000000e+00
3.358000e-01 4.380000e-02 0.000000e+00
3.504000e-01 4.380000e-02 0.000000e+00
3.650000e-01 4.380000e-02 0.000000e+00
3.796000e-01 4.380000e-02 0.000000e+00
3.942000e-01 4.380000e-02 0.000000e+00
4.088000e-01 4.380000e-02 0.000000e+00
4.234000e-01 4.380000e-02 0.000000e+00
4.380000e-01 4.380000e-02 0.000000e+00
4.526000e-01 4.380000e-02 0.000000e+00
4.672000e-01 4.380000e-02 0.000000e+00
4.818000e-01 4.380000e-02 0.000000e+00
4.964000e-01 4.380000e-02 0.000000e+00
5.110000e-01 4.380000e-02 0.000000e+00
5.256000e-01 4.380000e-02 0.000000e+00
5.402000e-01 4.380000e-02 0.000000e+00
5.548000e-01 4.380000e-02 0.000000e+00
5.694000e-01 4.380000e-02 0.000000e+00
5.840000e-01 4.380000e-02 0.000000e+00
0.000000e+00 5.840000e-02 0.000000e+00
1.460000e-02 5.840000e-02 0.000000e+00
2.920000e-02 5.840000e-02 0.000000e+00
4.380000e-02 5.840000e-02 0.000000e+00
5.840000e-02 5.840000e-02 0.000000e+00
7.300000e-02 5.840000e-02 0.000000e+00
8.760000e-02 5.840000e-02 0.000000e+00
1.022000e-01 5.840000e-02 0.000000e+00
1.168000e-01 5.840000e-02 0.000000e+00
1.314000e-01 5.840000e-02 0.000000e+00
1.460000e-01 5.840000e-02 0.000000e+00
1.606000e-01 5.840000e-02 0.000000e+00
1.752000e-01 5.840000e-02 0.000000e+00
1.898000e-01 5.840000e-02 0.000000e+00
2.044000e-01 5.840000e-02 0.000000e+00
2.190000e-01 5.840000e-02 0.000000e+00
2.336000e-01 5.840000e-02 0.000000e+00
2.482000e-01 5.840000e-02 0.000000e+00
2.628000e-01 5.840000e-02 0.000000e+00
2.774000e-01 5.840000e-02 0.000000e+00
2.920000e-01 5.840000e-02 0.000000e+00
3.066000e-01 5.840000e-02 0.000000e+00
3.212000e-01 5.840000e-02 0.000000e+00
3.358000e-01 5.840000e-02 0.000000e+00
3.504000e-01 5.840000e-02 0.000000e+00
3.650000e-01 5.840000e-02 0.000000e+00
3.796000e-01 5.840000e-02 0.000000e+00
3.942000e-01 5.840000e-02 0.000000e+00
4.088000e-01 5.840000e-02 0.000000e+00
4.234000e-01 5.840000e-02 0.000000e+00
4.380000e-01 5.840000e-02 0.000000e+00
4.526000e-01 5.840000e-02 0.000000e+00
4.672000e-01 5.840000e-02 0.000000e+00
4.818000e-01 5.840000e-02 0.000000e+00
4.964000e-01 5.840000e-02 0.000000e+00
5.110000e-01 5.840000e-02 0.000000e+00
5.256000e-01 5.840000e-02 0.000000e+00
5.402000e-01 5.840000e-02 0.000000e+00
5.548000e-01 5.840000e-02 0.000000e+00
5.694000e-01 5.840000e-02 0.000000e+00
5.840000e-01 5.840000e-02 0.000000e+00
0.000000e+00 7.300000e-02 0.000000e+00
1.460000e-02 7.300000e-02 0.000000e+00
2.920000e-02 7.300000e-02 0.000000e+00
4.380000e-02 7.300000e-02 0.000000e+00
5.840000e-02 7.300000e-02 0.000000e+00
7.300000e-02 7.300000e-02 0.000000e+00
8.760000e-02 7.300000e-02 0.000000e+00
1.022000e-01 7.300000e-02 0.000000e+00
1.168000e-01 7.300000e-02 0.000000e+00
1.314000e-01 7.300000e-02 0.000000e+00
1.460000e-01 7.300000e-02 0.000000e+00
1.606000e-01 7.300000e-02 0.000000e+00
1.752000e-01 7.300000e-02 0.000000e+00
1.898000e-01 7.300000e-02 0.000000e+00
2.044000e-01 7.300000e-02 0.000000e+00
2.190000e-01 7.300000e-02 0.000000e+00
2.336000e-01 7.300000e-02 0.000000e+00
2.482000e-01 7.300000e-02 0.000000e+00
2.628000e-01 7.300000e-02 0.000000e+00
2.774000e-01 7.300000e-02 0.000000e+00
2.920000e-01 7.300000e-02 0.000000e+00
3.066000e-01 7.300000e-02 0.000000e+00
3.212000e-01 7.300000e-02 0.000000e+00
3.358000e-01 7.300000e-02 0.000000e+00
3.504000e-01 7.300000e-02 0.000000e+00
3.650000e-01 7.300000e-02 0.000000e+00
3.796000e-01 7.300000e-02 0.000000e+00
3.942000e-01 7.300000e-02 0.000000e+00
4.088000e-01 7.300000e-02 0.000000e+00
4.234000e-01 7.300000e-02 0.000000e+00
4.380000e-01 7.300000e-02 0.000000e+00
4.526000e-01 7.300000e-02 0.000000e+00
4.672000e-01 7.300000e-02 0.000000e+00
4.818000e-01 7.300000e-02 0.000000e+00
4.964000e-01 7.300000e-02 0.000000e+00
5.110000e-01 7.300000e-02 0.000000e+00
5.256000e-01 7.300000e-02 0.000000e+00
5.402000e-01 7.300000e-02 0.000000e+00
5.548000e-01 7.300000e-02 0.000000e+00
5.694000e-01 7.300000e-02 0.000000e+00
5.840000e-01 7.300000e-02 0.000000e+00
0.000000e+00 8.760000e-02 0.000000e+00
1.460000e-02 8.760000e-02 0.000000e+00
2.920000e-02 8.760000e-02 0.000000e+00
4.380000e-02 8.760000e-02 0.000000e+00
5.840000e-02 8.760000e-02 0.000000e+00
7.300000e-02 8.760000e-02 0.000000e+00
8.760000e-02 8.760000e-02 0.000000e+00
1.022000e-01 8.760000e-02 0.000000e+00
[...]
POINT_DATA 11767
VECTORS Velocity float
0.000000e+00 0.000000e+00 0.000000e+00
2.978603e-02 0.000000e+00 0.000000e+00
4.885906e-02 0.000000e+00 0.000000e+00
6.304304e-02 0.000000e+00 0.000000e+00
7.326222e-02 0.000000e+00 0.000000e+00
8.046553e-02 0.000000e+00 0.000000e+00
8.451943e-02 0.000000e+00 0.000000e+00
8.584193e-02 0.000000e+00 0.000000e+00
8.507425e-02 0.000000e+00 0.000000e+00
8.306350e-02 0.000000e+00 0.000000e+00
8.042478e-02 0.000000e+00 0.000000e+00
7.772859e-02 0.000000e+00 0.000000e+00
7.543089e-02 0.000000e+00 0.000000e+00
7.393696e-02 0.000000e+00 0.000000e+00
7.342303e-02 0.000000e+00 0.000000e+00
7.379066e-02 0.000000e+00 0.000000e+00
7.446048e-02 0.000000e+00 0.000000e+00
7.506484e-02 0.000000e+00 0.000000e+00
7.547359e-02 0.000000e+00 0.000000e+00
7.562714e-02 0.000000e+00 0.000000e+00
7.559363e-02 0.000000e+00 0.000000e+00
7.551954e-02 0.000000e+00 0.000000e+00
7.553965e-02 0.000000e+00 0.000000e+00
7.577768e-02 0.000000e+00 0.000000e+00
7.619670e-02 0.000000e+00 0.000000e+00
7.687815e-02 0.000000e+00 0.000000e+00
7.777386e-02 0.000000e+00 0.000000e+00
7.899622e-02 0.000000e+00 0.000000e+00
8.043385e-02 0.000000e+00 0.000000e+00
8.214688e-02 0.000000e+00 0.000000e+00
8.384766e-02 0.000000e+00 0.000000e+00
8.537385e-02 0.000000e+00 0.000000e+00
8.632587e-02 0.000000e+00 0.000000e+00
8.639374e-02 0.000000e+00 0.000000e+00
8.543545e-02 0.000000e+00 0.000000e+00
8.339709e-02 0.000000e+00 0.000000e+00
7.950233e-02 0.000000e+00 0.000000e+00
7.466294e-02 0.000000e+00 0.000000e+00
6.257846e-02 0.000000e+00 0.000000e+00
4.791293e-02 0.000000e+00 0.000000e+00
0.000000e+00 0.000000e+00 0.000000e+00
0.000000e+00 -2.975818e-14 0.000000e+00
2.978603e-02 -4.841834e-14 0.000000e+00
4.885906e-02 -2.101407e-14 0.000000e+00
6.304304e-02 4.139655e-14 0.000000e+00
7.326222e-02 1.934891e-14 0.000000e+00
8.046553e-02 1.737081e-14 0.000000e+00
8.451943e-02 4.333430e-14 0.000000e+00
8.584193e-02 4.344167e-14 0.000000e+00
8.507425e-02 1.910523e-14 0.000000e+00
8.306350e-02 5.582957e-14 0.000000e+00
8.042478e-02 -2.881463e-15 0.000000e+00
7.772859e-02 -4.221862e-14 0.000000e+00
7.543089e-02 5.574197e-14 0.000000e+00
7.393696e-02 -3.443964e-14 0.000000e+00
7.342303e-02 2.565588e-14 0.000000e+00
7.379066e-02 4.989227e-14 0.000000e+00
7.446048e-02 -1.681788e-14 0.000000e+00
7.506484e-02 5.279832e-14 0.000000e+00
7.547359e-02 7.160297e-14 0.000000e+00
7.562714e-02 -5.887986e-14 0.000000e+00
7.559363e-02 1.062547e-14 0.000000e+00
7.551954e-02 -3.707125e-14 0.000000e+00
7.553965e-02 -5.016924e-14 0.000000e+00
7.577768e-02 -7.388176e-14 0.000000e+00
7.619670e-02 -1.514111e-13 0.000000e+00
7.687815e-02 -1.146211e-13 0.000000e+00
7.777386e-02 -2.084279e-13 0.000000e+00
7.899622e-02 -1.588947e-13 0.000000e+00
8.043385e-02 -1.659206e-13 0.000000e+00
8.214688e-02 -1.000439e-13 0.000000e+00
8.384766e-02 -1.055028e-13 0.000000e+00
8.537385e-02 -8.080361e-14 0.000000e+00
8.632587e-02 -1.530863e-13 0.000000e+00
8.639374e-02 -1.197260e-13 0.000000e+00
8.543545e-02 -1.553153e-13 0.000000e+00
8.339709e-02 -1.184049e-13 0.000000e+00
7.950233e-02 -1.721995e-13 0.000000e+00
7.466294e-02 -8.072128e-14 0.000000e+00
6.257846e-02 -9.203665e-14 0.000000e+00
4.791293e-02 -7.838948e-14 0.000000e+00
0.000000e+00 -8.097039e-14 0.000000e+00
0.000000e+00 -1.263664e-13 0.000000e+00
2.978603e-02 3.672862e-14 0.000000e+00
4.885906e-02 -4.594420e-14 0.000000e+00
6.304304e-02 1.907893e-14 0.000000e+00
7.326222e-02 8.410411e-15 0.000000e+00
8.046553e-02 9.219484e-15 0.000000e+00
8.451943e-02 4.413277e-14 0.000000e+00
8.584193e-02 3.316650e-14 0.000000e+00
8.507425e-02 1.965415e-14 0.000000e+00
8.306350e-02 3.058204e-14 0.000000e+00
8.042478e-02 1.615402e-14 0.000000e+00
7.772859e-02 -1.253006e-13 0.000000e+00
7.543089e-02 1.023048e-13 0.000000e+00
7.393696e-02 -1.172192e-13 0.000000e+00
7.342303e-02 1.839405e-14 0.000000e+00
7.379066e-02 1.682084e-14 0.000000e+00
7.446048e-02 -4.856144e-14 0.000000e+00
7.506484e-02 2.231214e-14 0.000000e+00
7.547359e-02 9.182021e-14 0.000000e+00
7.562714e-02 -1.098062e-13 0.000000e+00
7.559363e-02 3.134527e-14 0.000000e+00
7.551954e-02 -6.119429e-14 0.000000e+00
7.553965e-02 -2.118051e-14 0.000000e+00
7.577768e-02 -4.814872e-14 0.000000e+00
7.619670e-02 -1.201900e-13 0.000000e+00
7.687815e-02 -5.506409e-14 0.000000e+00
7.777386e-02 -1.391406e-13 0.000000e+00
7.899622e-02 -9.451443e-14 0.000000e+00
8.043385e-02 -1.200753e-13 0.000000e+00
8.214688e-02 -2.645094e-14 0.000000e+00
8.384766e-02 -5.261297e-14 0.000000e+00
8.537385e-02 -2.052084e-14 0.000000e+00
8.632587e-02 -6.656688e-14 0.000000e+00
8.639374e-02 -1.106662e-13 0.000000e+00
8.543545e-02 -1.632380e-13 0.000000e+00
8.339709e-02 -1.439707e-13 0.000000e+00
7.950233e-02 -1.575382e-13 0.000000e+00
7.466294e-02 -1.167306e-13 0.000000e+00
6.257846e-02 -3.742495e-14 0.000000e+00
4.791293e-02 -1.224798e-13 0.000000e+00
0.000000e+00 -1.521542e-13 0.000000e+00
0.000000e+00 -2.952632e-14 0.000000e+00
2.978603e-02 1.677155e-14 0.000000e+00
4.885906e-02 -3.093596e-14 0.000000e+00
6.304304e-02 -1.852366e-14 0.000000e+00
7.326222e-02 7.039003e-16 0.000000e+00
8.046553e-02 1.245708e-14 0.000000e+00
8.451943e-02 3.389344e-14 0.000000e+00
8.584193e-02 1.505546e-14 0.000000e+00
8.507425e-02 -1.750318e-14 0.000000e+00
8.306350e-02 -1.116362e-14 0.000000e+00
8.042478e-02 -1.376711e-14 0.000000e+00
7.772859e-02 -1.299311e-13 0.000000e+00
7.543089e-02 9.513948e-14 0.000000e+00
7.393696e-02 -1.569415e-13 0.000000e+00
7.342303e-02 2.322895e-14 0.000000e+00
7.379066e-02 8.672014e-15 0.000000e+00
7.446048e-02 -5.443240e-14 0.000000e+00
7.506484e-02 -2.580301e-14 0.000000e+00
7.547359e-02 7.603499e-14 0.000000e+00
7.562714e-02 -1.501168e-13 0.000000e+00
7.559363e-02 4.237683e-14 0.000000e+00
7.551954e-02 -2.905751e-14 0.000000e+00
7.553965e-02 9.060348e-15 0.000000e+00
7.577768e-02 6.008378e-14 0.000000e+00
7.619670e-02 -6.428704e-14 0.000000e+00
7.687815e-02 8.169436e-14 0.000000e+00
7.777386e-02 -3.129565e-14 0.000000e+00
7.899622e-02 6.154165e-14 0.000000e+00
8.043385e-02 2.539320e-14 0.000000e+00
8.214688e-02 7.555535e-14 0.000000e+00
8.384766e-02 2.595367e-14 0.000000e+00
8.537385e-02 8.061027e-14 0.000000e+00
8.632587e-02 3.435887e-14 0.000000e+00
8.639374e-02 -1.724291e-15 0.000000e+00
8.543545e-02 -9.716610e-14 0.000000e+00
8.339709e-02 -7.859267e-14 0.000000e+00
7.950233e-02 -1.155126e-13 0.000000e+00
7.466294e-02 -3.062968e-14 0.000000e+00
6.257846e-02 -2.358025e-14 0.000000e+00
4.791293e-02 -3.268445e-14 0.000000e+00
0.000000e+00 -1.430099e-13 0.000000e+00
0.000000e+00 2.879482e-14 0.000000e+00
2.978603e-02 -5.351075e-14 0.000000e+00
4.885906e-02 6.317855e-15 0.000000e+00
6.304304e-02 -2.810248e-14 0.000000e+00
7.326222e-02 1.164618e-14 0.000000e+00
8.046553e-02 -8.437538e-15 0.000000e+00
8.451943e-02 1.986071e-14 0.000000e+00
8.584193e-02 -1.339272e-14 0.000000e+00
8.507425e-02 -5.724911e-14 0.000000e+00
8.306350e-02 -3.001940e-14 0.000000e+00
8.042478e-02 -2.211565e-14 0.000000e+00
7.772859e-02 -1.125710e-13 0.000000e+00
7.543089e-02 9.573510e-14 0.000000e+00
7.393696e-02 -1.406485e-13 0.000000e+00
7.342303e-02 -1.774078e-14 0.000000e+00
7.379066e-02 1.600577e-14 0.000000e+00
7.446048e-02 -6.124348e-14 0.000000e+00
7.506484e-02 1.924732e-14 0.000000e+00
7.547359e-02 1.013061e-13 0.000000e+00
7.562714e-02 -1.155533e-13 0.000000e+00
7.559363e-02 5.625587e-14 0.000000e+00
7.551954e-02 -6.090345e-14 0.000000e+00
7.553965e-02 5.626395e-15 0.000000e+00
7.577768e-02 7.709370e-15 0.000000e+00
7.619670e-02 -6.317928e-14 0.000000e+00
7.687815e-02 3.486812e-14 0.000000e+00
7.777386e-02 -7.078603e-14 0.000000e+00
7.899622e-02 -1.089176e-14 0.000000e+00
8.043385e-02 -2.781341e-14 0.000000e+00
8.214688e-02 2.936552e-14 0.000000e+00
8.384766e-02 -3.362837e-14 0.000000e+00
8.537385e-02 3.187089e-14 0.000000e+00
8.632587e-02 -1.263248e-14 0.000000e+00
8.639374e-02 -2.302729e-14 0.000000e+00
8.543545e-02 -6.666496e-14 0.000000e+00
8.339709e-02 -7.138191e-14 0.000000e+00
7.950233e-02 -7.403493e-14 0.000000e+00
7.466294e-02 -4.320141e-14 0.000000e+00
6.257846e-02 1.139646e-14 0.000000e+00
4.791293e-02 -4.511494e-14 0.000000e+00
0.000000e+00 -1.229380e-13 0.000000e+00
0.000000e+00 -1.092443e-13 0.000000e+00
2.978603e-02 -2.020350e-15 0.000000e+00
4.885906e-02 -3.242308e-14 0.000000e+00
6.304304e-02 -1.336856e-14 0.000000e+00
7.326222e-02 -3.862405e-15 0.000000e+00
8.046553e-02 3.492421e-15 0.000000e+00
8.451943e-02 8.952564e-16 0.000000e+00
8.584193e-02 -2.138906e-14 0.000000e+00
8.507425e-02 -3.274394e-14 0.000000e+00
8.306350e-02 -4.230564e-14 0.000000e+00
8.042478e-02 -1.254767e-14 0.000000e+00
7.772859e-02 -7.723314e-14 0.000000e+00
7.543089e-02 5.510514e-14 0.000000e+00
7.393696e-02 -1.081103e-13 0.000000e+00
7.342303e-02 9.906073e-15 0.000000e+00
7.379066e-02 1.486491e-15 0.000000e+00
7.446048e-02 -4.260901e-14 0.000000e+00
7.506484e-02 1.315322e-14 0.000000e+00
7.547359e-02 6.380706e-14 0.000000e+00
7.562714e-02 -8.139391e-14 0.000000e+00
7.559363e-02 2.478098e-14 0.000000e+00
7.551954e-02 -6.438507e-14 0.000000e+00
7.553965e-02 -4.288793e-14 0.000000e+00
7.577768e-02 -4.028101e-14 0.000000e+00
7.619670e-02 -1.238842e-13 0.000000e+00
7.687815e-02 -5.345849e-14 0.000000e+00
7.777386e-02 -1.452128e-13 0.000000e+00
7.899622e-02 -8.701534e-14 0.000000e+00
8.043385e-02 -1.233682e-13 0.000000e+00
8.214688e-02 -6.655527e-14 0.000000e+00
8.384766e-02 -8.482245e-14 0.000000e+00
8.537385e-02 -5.609058e-14 0.000000e+00
8.632587e-02 -1.039036e-13 0.000000e+00
8.639374e-02 -4.504150e-14 0.000000e+00
8.543545e-02 -9.044694e-14 0.000000e+00
8.339709e-02 -5.166972e-14 0.000000e+00
7.950233e-02 -9.598107e-14 0.000000e+00
7.466294e-02 -1.440527e-14 0.000000e+00
6.257846e-02 -6.814838e-14 0.000000e+00
4.791293e-02 3.747904e-15 0.000000e+00
0.000000e+00 -6.611568e-14 0.000000e+00
0.000000e+00 0.000000e+00 0.000000e+00
2.978603e-02 0.000000e+00 0.000000e+00
4.885906e-02 0.000000e+00 0.000000e+00
6.304304e-02 0.000000e+00 0.000000e+00
7.326222e-02 0.000000e+00 0.000000e+00
8.046553e-02 0.000000e+00 0.000000e+00
8.451943e-02 0.000000e+00 0.000000e+00
8.584193e-02 0.000000e+00 0.000000e+00
8.507425e-02 0.000000e+00 0.000000e+00
8.306350e-02 0.000000e+00 0.000000e+00
8.042478e-02 0.000000e+00 0.000000e+00
7.772859e-02 0.000000e+00 0.000000e+00
7.543089e-02 0.000000e+00 0.000000e+00
7.393696e-02 0.000000e+00 0.000000e+00
7.342303e-02 0.000000e+00 0.000000e+00
7.379066e-02 0.000000e+00 0.000000e+00
7.446048e-02 0.000000e+00 0.000000e+00
7.506484e-02 0.000000e+00 0.000000e+00
7.547359e-02 0.000000e+00 0.000000e+00
7.562714e-02 0.000000e+00 0.000000e+00
7.559363e-02 0.000000e+00 0.000000e+00
7.551954e-02 0.000000e+00 0.000000e+00
7.553965e-02 0.000000e+00 0.000000e+00
7.577768e-02 0.000000e+00 0.000000e+00
7.619670e-02 0.000000e+00 0.000000e+00
7.687815e-02 0.000000e+00 0.000000e+00
7.777386e-02 0.000000e+00 0.000000e+00
7.899622e-02 0.000000e+00 0.000000e+00
8.043385e-02 0.000000e+00 0.000000e+00
8.214688e-02 0.000000e+00 0.000000e+00
8.384766e-02 0.000000e+00 0.000000e+00
8.537385e-02 0.000000e+00 0.000000e+00
8.632587e-02 0.000000e+00 0.000000e+00
8.639374e-02 0.000000e+00 0.000000e+00
8.543545e-02 0.000000e+00 0.000000e+00
8.339709e-02 0.000000e+00 0.000000e+00
7.950233e-02 0.000000e+00 0.000000e+00
7.466294e-02 0.000000e+00 0.000000e+00
6.257846e-02 0.000000e+00 0.000000e+00
4.791293e-02 0.000000e+00 0.000000e+00
0.000000e+00 0.000000e+00 0.000000e+00
0.000000e+00 0.000000e+00 -2.846089e-02
1.357159e-02 0.000000e+00 -2.348081e-02
2.713895e-02 0.000000e+00 -1.701270e-02
3.754981e-02 0.000000e+00 -1.351983e-02
4.491442e-02 0.000000e+00 -1.005009e-02
4.891503e-02 0.000000e+00 -7.059004e-03
5.034024e-02 0.000000e+00 -4.219063e-03
4.941444e-02 0.000000e+00 -1.872188e-03
4.660535e-02 0.000000e+00 -2.152131e-04
4.245773e-02 0.000000e+00 6.910743e-04
3.785339e-02 0.000000e+00 9.308448e-04
3.347985e-02 0.000000e+00 6.433311e-04
2.975355e-02 0.000000e+00 -1.809896e-05
2.677187e-02 0.000000e+00 -8.832782e-04
2.446688e-02 0.000000e+00 -1.741937e-03
2.255474e-02 0.000000e+00 -2.223724e-03
2.070655e-02 0.000000e+00 -2.249560e-03
1.878891e-02 0.000000e+00 -2.121914e-03
1.682369e-02 0.000000e+00 -1.960784e-03
1.494919e-02 0.000000e+00 -1.871071e-03
1.342056e-02 0.000000e+00 -1.944048e-03
1.240266e-02 0.000000e+00 -2.147998e-03
1.194474e-02 0.000000e+00 -2.448339e-03
1.199565e-02 0.000000e+00 -2.754223e-03
1.255338e-02 0.000000e+00 -3.070648e-03
1.356620e-02 0.000000e+00 -3.377381e-03
1.499803e-02 0.000000e+00 -3.694283e-03
1.677773e-02 0.000000e+00 -3.997564e-03
1.890552e-02 0.000000e+00 -4.277373e-03
2.132820e-02 0.000000e+00 -4.501045e-03
2.412275e-02 0.000000e+00 -4.544046e-03
2.712826e-02 0.000000e+00 -4.372645e-03
3.012562e-02 0.000000e+00 -3.742951e-03
3.234239e-02 0.000000e+00 -2.740542e-03
3.349188e-02 0.000000e+00 -1.732763e-03
3.306015e-02 0.000000e+00 8.134704e-05
3.128366e-02 0.000000e+00 5.926437e-04
2.799060e-02 0.000000e+00 5.186814e-03
2.264421e-02 0.000000e+00 6.206455e-03
1.518927e-02 0.000000e+00 2.137788e-02
0.000000e+00 0.000000e+00 4.107938e-02
0.000000e+00 -7.008309e-14 -2.846089e-02
1.357159e-02 -2.819537e-14 -2.348081e-02
2.713895e-02 9.270016e-15 -1.701270e-02
3.754981e-02 2.489419e-14 -1.351983e-02
4.491442e-02 7.494374e-15 -1.005009e-02
4.891503e-02 3.102902e-14 -7.059004e-03
5.034024e-02 -8.456181e-15 -4.219063e-03
4.941444e-02 7.745528e-15 -1.872188e-03
4.660535e-02 -1.953481e-15 -2.152131e-04
4.245773e-02 -6.841784e-16 6.910743e-04
3.785339e-02 6.026806e-14 9.308448e-04
3.347985e-02 9.616389e-14 6.433311e-04
2.975355e-02 9.882474e-14 -1.809896e-05
2.677187e-02 6.994419e-14 -8.832782e-04
2.446688e-02 7.662509e-14 -1.741937e-03
2.255474e-02 -9.986931e-15 -2.223724e-03
2.070655e-02 -1.304172e-14 -2.249560e-03
1.878891e-02 -4.840784e-14 -2.121914e-03
1.682369e-02 -1.038121e-13 -1.960784e-03
1.494919e-02 4.263437e-14 -1.871071e-03
1.342056e-02 2.749390e-14 -1.944048e-03
1.240266e-02 -3.766864e-14 -2.147998e-03
1.194474e-02 -9.359911e-14 -2.448339e-03
1.199565e-02 -2.743999e-13 -2.754223e-03
1.255338e-02 -2.735968e-13 -3.070648e-03
1.356620e-02 -4.942719e-13 -3.377381e-03
1.499803e-02 -6.386744e-13 -3.694283e-03
1.677773e-02 -7.376883e-13 -3.997564e-03
1.890552e-02 -8.639482e-13 -4.277373e-03
2.132820e-02 -8.016958e-13 -4.501045e-03
2.412275e-02 -5.907788e-13 -4.544046e-03
2.712826e-02 -9.356223e-14 -4.372645e-03
3.012562e-02 3.769303e-13 -3.742951e-03
3.234239e-02 5.997767e-13 -2.740542e-03
3.349188e-02 2.564473e-13 -1.732763e-03
3.306015e-02 1.343807e-13 8.134704e-05
3.128366e-02 -6.389857e-14 5.926437e-04
2.799060e-02 1.912227e-14 5.186814e-03
2.264421e-02 -1.805171e-13 6.206455e-03
1.518927e-02 1.612815e-13 2.137788e-02
0.000000e+00 -1.963637e-13 4.107938e-02
0.000000e+00 -9.808585e-14 -2.846089e-02
1.357159e-02 -7.531339e-14 -2.348081e-02
2.713895e-02 -5.353711e-14 -1.701270e-02
3.754981e-02 8.647794e-15 -1.351983e-02
4.491442e-02 5.809859e-15 -1.005009e-02
4.891503e-02 8.120677e-14 -7.059004e-03
5.034024e-02 -1.306577e-14 -4.219063e-03
4.941444e-02 7.354364e-14 -1.872188e-03
4.660535e-02 1.977939e-14 -2.152131e-04
4.245773e-02 9.876131e-15 6.910743e-04
3.785339e-02 7.980652e-14 9.308448e-04
3.347985e-02 8.097651e-14 6.433311e-04
2.975355e-02 8.377566e-14 -1.809896e-05
2.677187e-02 7.078876e-14 -8.832782e-04
2.446688e-02 1.267382e-13 -1.741937e-03
2.255474e-02 -2.244100e-14 -2.223724e-03
2.070655e-02 5.664992e-14 -2.249560e-03
1.878891e-02 -1.156496e-14 -2.121914e-03
1.682369e-02 -4.105480e-14 -1.960784e-03
1.494919e-02 9.901426e-14 -1.871071e-03
1.342056e-02 8.289220e-14 -1.944048e-03
1.240266e-02 2.816090e-15 -2.147998e-03
1.194474e-02 2.050558e-14 -2.448339e-03
1.199565e-02 -2.080794e-13 -2.754223e-03
1.255338e-02 -5.581225e-14 -3.070648e-03
1.356620e-02 -3.497526e-13 -3.377381e-03
1.499803e-02 -4.464565e-13 -3.694283e-03
1.677773e-02 -5.239333e-13 -3.997564e-03
1.890552e-02 -6.690374e-13 -4.277373e-03
2.132820e-02 -7.214391e-13 -4.501045e-03
2.412275e-02 -6.879228e-13 -4.544046e-03
2.712826e-02 -3.070753e-13 -4.372645e-03
3.012562e-02 -6.849766e-14 -3.742951e-03
3.234239e-02 2.809893e-13 -2.740542e-03
3.349188e-02 1.761125e-13 -1.732763e-03
3.306015e-02 6.786180e-14 8.134704e-05
3.128366e-02 -1.272301e-13 5.926437e-04
2.799060e-02 -7.601092e-14 5.186814e-03
2.264421e-02 -2.047474e-13 6.206455e-03
1.518927e-02 1.225554e-13 2.137788e-02
0.000000e+00 -2.819562e-13 4.107938e-02
0.000000e+00 -3.560562e-14 -2.846089e-02
1.357159e-02 -5.245208e-14 -2.348081e-02
2.713895e-02 -4.155231e-14 -1.701270e-02
3.754981e-02 -9.844022e-15 -1.351983e-02
4.491442e-02 2.752651e-14 -1.005009e-02
4.891503e-02 7.848835e-14 -7.059004e-03
5.034024e-02 -7.989988e-15 -4.219063e-03
4.941444e-02 8.286115e-14 -1.872188e-03
4.660535e-02 1.752667e-14 -2.152131e-04
4.245773e-02 1.977468e-14 6.910743e-04
3.785339e-02 6.855867e-14 9.308448e-04
3.347985e-02 2.859095e-14 6.433311e-04
2.975355e-02 5.460886e-14 -1.809896e-05
2.677187e-02 1.142451e-13 -8.832782e-04
2.446688e-02 1.721567e-13 -1.741937e-03
2.255474e-02 2.623639e-14 -2.223724e-03
2.070655e-02 8.171843e-14 -2.249560e-03
1.878891e-02 -3.896836e-15 -2.121914e-03
1.682369e-02 -3.114290e-14 -1.960784e-03
1.494919e-02 1.388841e-13 -1.871071e-03
1.342056e-02 1.340347e-13 -1.944048e-03
1.240266e-02 1.107834e-13 -2.147998e-03
1.194474e-02 1.745475e-13 -2.448339e-03
1.199565e-02 -6.285703e-14 -2.754223e-03
1.255338e-02 2.039382e-13 -3.070648e-03
1.356620e-02 6.259421e-14 -3.377381e-03
1.499803e-02 4.008424e-15 -3.694283e-03
1.677773e-02 5.501928e-14 -3.997564e-03
1.890552e-02 -2.144396e-13 -4.277373e-03
2.132820e-02 -2.146242e-13 -4.501045e-03
2.412275e-02 -4.174795e-13 -4.544046e-03
2.712826e-02 -4.551343e-13 -4.372645e-03
3.012562e-02 -5.748420e-13 -3.742951e-03
3.234239e-02 -2.719524e-13 -2.740542e-03
3.349188e-02 -1.399117e-13 -1.732763e-03
3.306015e-02 -3.515511e-14 8.134704e-05
3.128366e-02 -2.229448e-13 5.926437e-04
2.799060e-02 -8.323091e-14 5.186814e-03
2.264421e-02 -3.004621e-13 6.206455e-03
1.518927e-02 1.176180e-13 2.137788e-02
0.000000e+00 -3.718055e-13 4.107938e-02
0.000000e+00 -5.235287e-14 -2.846089e-02
1.357159e-02 -2.944948e-14 -2.348081e-02
2.713895e-02 -1.090713e-14 -1.701270e-02
3.754981e-02 -4.901190e-15 -1.351983e-02
4.491442e-02 2.054040e-14 -1.005009e-02
4.891503e-02 4.181896e-14 -7.059004e-03
5.034024e-02 -2.656738e-14 -4.219063e-03
4.941444e-02 7.809499e-14 -1.872188e-03
4.660535e-02 5.711132e-14 -2.152131e-04
4.245773e-02 4.070401e-14 6.910743e-04
3.785339e-02 6.559517e-14 9.308448e-04
3.347985e-02 6.421975e-14 6.433311e-04
2.975355e-02 5.611434e-14 -1.809896e-05
2.677187e-02 7.180581e-14 -8.832782e-04
2.446688e-02 1.324625e-13 -1.741937e-03
2.255474e-02 -1.809972e-15 -2.223724e-03
2.070655e-02 7.081472e-14 -2.249560e-03
1.878891e-02 9.524843e-15 -2.121914e-03
1.682369e-02 -8.330280e-14 -1.960784e-03
1.494919e-02 2.878966e-14 -1.871071e-03
1.342056e-02 9.835185e-15 -1.944048e-03
1.240266e-02 3.750072e-14 -2.147998e-03
1.194474e-02 1.101983e-13 -2.448339e-03
1.199565e-02 -7.679459e-14 -2.754223e-03
1.255338e-02 1.611772e-13 -3.070648e-03
1.356620e-02 -7.814526e-14 -3.377381e-03
1.499803e-02 -7.659049e-14 -3.694283e-03
1.677773e-02 -1.153326e-13 -3.997564e-03
1.890552e-02 -2.455017e-13 -4.277373e-03
2.132820e-02 -3.238905e-13 -4.501045e-03
2.412275e-02 -4.113904e-13 -4.544046e-03
2.712826e-02 -3.667598e-13 -4.372645e-03
3.012562e-02 -3.779702e-13 -3.742951e-03
3.234239e-02 -1.444939e-13 -2.740542e-03
3.349188e-02 -1.088962e-13 -1.732763e-03
3.306015e-02 -1.239199e-14 8.134704e-05
3.128366e-02 -1.614328e-13 5.926437e-04
2.799060e-02 -3.722701e-14 5.186814e-03
2.264421e-02 -2.022390e-13 6.206455e-03
1.518927e-02 8.800189e-14 2.137788e-02
0.000000e+00 -2.445704e-13 4.107938e-02
0.000000e+00 -2.091717e-14 -2.846089e-02
1.357159e-02 -5.097216e-14 -2.348081e-02
2.713895e-02 -3.047558e-14 -1.701270e-02
3.754981e-02 -7.933728e-15 -1.351983e-02
4.491442e-02 -1.084484e-14 -1.005009e-02
4.891503e-02 2.022269e-14 -7.059004e-03
5.034024e-02 -3.146268e-14 -4.219063e-03
4.941444e-02 5.334743e-14 -1.872188e-03
4.660535e-02 3.822431e-14 -2.152131e-04