# vtk DataFile Version 3.0
vtk output
ASCII
DATASET UNSTRUCTURED_GRID
POINTS 11767 float
0.000000e+00 0.000000e+00 0.000000e+00
1.460000e-02 0.000000e+00 0.000000e+00
2.920000e-02 0.000000e+00 0.000000e+00
4.380000e-02 0.000000e+00 0.000000e+00
5.840000e-02 0.000000e+00 0.000000e+00
7.300000e-02 0.000000e+00 0.000000e+00
8.760000e-02 0.000000e+00 0.000000e+00
1.022000e-01 0.000000e+00 0.000000e+00
1.168000e-01 0.000000e+00 0.000000e+00
1.314000e-01 0.000000e+00 0.000000e+00
1.460000e-01 0.000000e+00 0.000000e+00
1.606000e-01 0.000000e+00 0.000000e+00
1.752000e-01 0.000000e+00 0.000000e+00
1.898000e-01 0.000000e+00 0.000000e+00
2.044000e-01 0.000000e+00 0.000000e+00
2.190000e-01 0.000000e+00 0.000000e+00
2.336000e-01 0.000000e+00 0.000000e+00
2.482000e-01 0.000000e+00 0.000000e+00
2.628000e-01 0.000000e+00 0.000000e+00
2.774000e-01 0.000000e+00 0.000000e+00
2.920000e-01 0.000000e+00 0.000000e+00
3.066000e-01 0.000000e+00 0.000000e+00
3.212000e-01 0.000000e+00 0.000000e+00
3.358000e-01 0.000000e+00 0.000000e+00
3.504000e-01 0.000000e+00 0.000000e+00
3.650000e-01 0.000000e+00 0.000000e+00
3.796000e-01 0.000000e+00 0.000000e+00
3.942000e-01 0.000000e+00 0.000000e+00
4.088000e-01 0.000000e+00 0.000000e+00
4.234000e-01 0.000000e+00 0.000000e+00
4.380000e-01 0.000000e+00 0.000000e+00
4.526000e-01 0.000000e+00 0.000000e+00
4.672000e-01 0.000000e+00 0.000000e+00
4.818000e-01 0.000000e+00 0.000000e+00
4.964000e-01 0.000000e+00 0.000000e+00
5.110000e-01 0.000000e+00 0.000000e+00
5.256000e-01 0.000000e+00 0.000000e+00
5.402000e-01 0.000000e+00 0.000000e+00
5.548000e-01 0.000000e+00 0.000000e+00
5.694000e-01 0.000000e+00 0.000000e+00
5.840000e-01 0.000000e+00 0.000000e+00
0.000000e+00 1.460000e-02 0.000000e+00
1.460000e-02 1.460000e-02 0.000000e+00
2.920000e-02 1.460000e-02 0.000000e+00
4.380000e-02 1.460000e-02 0.000000e+00
5.840000e-02 1.460000e-02 0.000000e+00
7.300000e-02 1.460000e-02 0.000000e+00
8.760000e-02 1.460000e-02 0.000000e+00
1.022000e-01 1.460000e-02 0.000000e+00
1.168000e-01 1.460000e-02 0.000000e+00
1.314000e-01 1.460000e-02 0.000000e+00
1.460000e-01 1.460000e-02 0.000000e+00
1.606000e-01 1.460000e-02 0.000000e+00
1.752000e-01 1.460000e-02 0.000000e+00
1.898000e-01 1.460000e-02 0.000000e+00
2.044000e-01 1.460000e-02 0.000000e+00
2.190000e-01 1.460000e-02 0.000000e+00
2.336000e-01 1.460000e-02 0.000000e+00
2.482000e-01 1.460000e-02 0.000000e+00
2.628000e-01 1.460000e-02 0.000000e+00
2.774000e-01 1.460000e-02 0.000000e+00
2.920000e-01 1.460000e-02 0.000000e+00
3.066000e-01 1.460000e-02 0.000000e+00
3.212000e-01 1.460000e-02 0.000000e+00
3.358000e-01 1.460000e-02 0.000000e+00
3.504000e-01 1.460000e-02 0.000000e+00
3.650000e-01 1.460000e-02 0.000000e+00
3.796000e-01 1.460000e-02 0.000000e+00
3.942000e-01 1.460000e-02 0.000000e+00
4.088000e-01 1.460000e-02 0.000000e+00
4.234000e-01 1.460000e-02 0.000000e+00
4.380000e-01 1.460000e-02 0.000000e+00
4.526000e-01 1.460000e-02 0.000000e+00
4.672000e-01 1.460000e-02 0.000000e+00
4.818000e-01 1.460000e-02 0.000000e+00
4.964000e-01 1.460000e-02 0.000000e+00
5.110000e-01 1.460000e-02 0.000000e+00
5.256000e-01 1.460000e-02 0.000000e+00
5.402000e-01 1.460000e-02 0.000000e+00
5.548000e-01 1.460000e-02 0.000000e+00
5.694000e-01 1.460000e-02 0.000000e+00
5.840000e-01 1.460000e-02 0.000000e+00
0.000000e+00 2.920000e-02 0.000000e+00
1.460000e-02 2.920000e-02 0.000000e+00
2.920000e-02 2.920000e-02 0.000000e+00
4.380000e-02 2.920000e-02 0.000000e+00
5.840000e-02 2.920000e-02 0.000000e+00
7.300000e-02 2.920000e-02 0.000000e+00
8.760000e-02 2.920000e-02 0.000000e+00
1.022000e-01 2.920000e-02 0.000000e+00
1.168000e-01 2.920000e-02 0.000000e+00
1.314000e-01 2.920000e-02 0.000000e+00
1.460000e-01 2.920000e-02 0.000000e+00
1.606000e-01 2.920000e-02 0.000000e+00
1.752000e-01 2.920000e-02 0.000000e+00
1.898000e-01 2.920000e-02 0.000000e+00
2.044000e-01 2.920000e-02 0.000000e+00
2.190000e-01 2.920000e-02 0.000000e+00
2.336000e-01 2.920000e-02 0.000000e+00
2.482000e-01 2.920000e-02 0.000000e+00
2.628000e-01 2.920000e-02 0.000000e+00
2.774000e-01 2.920000e-02 0.000000e+00
2.920000e-01 2.920000e-02 0.000000e+00
3.066000e-01 2.920000e-02 0.000000e+00
3.212000e-01 2.920000e-02 0.000000e+00
3.358000e-01 2.920000e-02 0.000000e+00
3.504000e-01 2.920000e-02 0.000000e+00
3.650000e-01 2.920000e-02 0.000000e+00
3.796000e-01 2.920000e-02 0.000000e+00
3.942000e-01 2.920000e-02 0.000000e+00
4.088000e-01 2.920000e-02 0.000000e+00
4.234000e-01 2.920000e-02 0.000000e+00
4.380000e-01 2.920000e-02 0.000000e+00
4.526000e-01 2.920000e-02 0.000000e+00
4.672000e-01 2.920000e-02 0.000000e+00
4.818000e-01 2.920000e-02 0.000000e+00
4.964000e-01 2.920000e-02 0.000000e+00
5.110000e-01 2.920000e-02 0.000000e+00
5.256000e-01 2.920000e-02 0.000000e+00
5.402000e-01 2.920000e-02 0.000000e+00
5.548000e-01 2.920000e-02 0.000000e+00
5.694000e-01 2.920000e-02 0.000000e+00
5.840000e-01 2.920000e-02 0.000000e+00
0.000000e+00 4.380000e-02 0.000000e+00
1.460000e-02 4.380000e-02 0.000000e+00
2.920000e-02 4.380000e-02 0.000000e+00
4.380000e-02 4.380000e-02 0.000000e+00
5.840000e-02 4.380000e-02 0.000000e+00
7.300000e-02 4.380000e-02 0.000000e+00
8.760000e-02 4.380000e-02 0.000000e+00
1.022000e-01 4.380000e-02 0.000000e+00
1.168000e-01 4.380000e-02 0.000000e+00
1.314000e-01 4.380000e-02 0.000000e+00
1.460000e-01 4.380000e-02 0.000000e+00
1.606000e-01 4.380000e-02 0.000000e+00
1.752000e-01 4.380000e-02 0.000000e+00
1.898000e-01 4.380000e-02 0.000000e+00
2.044000e-01 4.380000e-02 0.000000e+00
2.190000e-01 4.380000e-02 0.000000e+00
2.336000e-01 4.380000e-02 0.000000e+00
2.482000e-01 4.380000e-02 0.000000e+00
2.628000e-01 4.380000e-02 0.000000e+00
2.774000e-01 4.380000e-02 0.000000e+00
2.920000e-01 4.380000e-02 0.000000e+00
3.066000e-01 4.380000e-02 0.000000e+00
3.212000e-01 4.380000e-02 0.000000e+00
3.358000e-01 4.380000e-02 0.000000e+00
3.504000e-01 4.380000e-02 0.000000e+00
3.650000e-01 4.380000e-02 0.000000e+00
3.796000e-01 4.380000e-02 0.000000e+00
3.942000e-01 4.380000e-02 0.000000e+00
4.088000e-01 4.380000e-02 0.000000e+00
4.234000e-01 4.380000e-02 0.000000e+00
4.380000e-01 4.380000e-02 0.000000e+00
4.526000e-01 4.380000e-02 0.000000e+00
4.672000e-01 4.380000e-02 0.000000e+00
4.818000e-01 4.380000e-02 0.000000e+00
4.964000e-01 4.380000e-02 0.000000e+00
5.110000e-01 4.380000e-02 0.000000e+00
5.256000e-01 4.380000e-02 0.000000e+00
5.402000e-01 4.380000e-02 0.000000e+00
5.548000e-01 4.380000e-02 0.000000e+00
5.694000e-01 4.380000e-02 0.000000e+00
5.840000e-01 4.380000e-02 0.000000e+00
0.000000e+00 5.840000e-02 0.000000e+00
1.460000e-02 5.840000e-02 0.000000e+00
2.920000e-02 5.840000e-02 0.000000e+00
4.380000e-02 5.840000e-02 0.000000e+00
5.840000e-02 5.840000e-02 0.000000e+00
7.300000e-02 5.840000e-02 0.000000e+00
8.760000e-02 5.840000e-02 0.000000e+00
1.022000e-01 5.840000e-02 0.000000e+00
1.168000e-01 5.840000e-02 0.000000e+00
1.314000e-01 5.840000e-02 0.000000e+00
1.460000e-01 5.840000e-02 0.000000e+00
1.606000e-01 5.840000e-02 0.000000e+00
1.752000e-01 5.840000e-02 0.000000e+00
1.898000e-01 5.840000e-02 0.000000e+00
2.044000e-01 5.840000e-02 0.000000e+00
2.190000e-01 5.840000e-02 0.000000e+00
2.336000e-01 5.840000e-02 0.000000e+00
2.482000e-01 5.840000e-02 0.000000e+00
2.628000e-01 5.840000e-02 0.000000e+00
2.774000e-01 5.840000e-02 0.000000e+00
2.920000e-01 5.840000e-02 0.000000e+00
3.066000e-01 5.840000e-02 0.000000e+00
3.212000e-01 5.840000e-02 0.000000e+00
3.358000e-01 5.840000e-02 0.000000e+00
3.504000e-01 5.840000e-02 0.000000e+00
3.650000e-01 5.840000e-02 0.000000e+00
3.796000e-01 5.840000e-02 0.000000e+00
3.942000e-01 5.840000e-02 0.000000e+00
4.088000e-01 5.840000e-02 0.000000e+00
4.234000e-01 5.840000e-02 0.000000e+00
4.380000e-01 5.840000e-02 0.000000e+00
4.526000e-01 5.840000e-02 0.000000e+00
4.672000e-01 5.840000e-02 0.000000e+00
4.818000e-01 5.840000e-02 0.000000e+00
4.964000e-01 5.840000e-02 0.000000e+00
5.110000e-01 5.840000e-02 0.000000e+00
5.256000e-01 5.840000e-02 0.000000e+00
5.402000e-01 5.840000e-02 0.000000e+00
5.548000e-01 5.840000e-02 0.000000e+00
5.694000e-01 5.840000e-02 0.000000e+00
5.840000e-01 5.840000e-02 0.000000e+00
0.000000e+00 7.300000e-02 0.000000e+00
1.460000e-02 7.300000e-02 0.000000e+00
2.920000e-02 7.300000e-02 0.000000e+00
4.380000e-02 7.300000e-02 0.000000e+00
5.840000e-02 7.300000e-02 0.000000e+00
7.300000e-02 7.300000e-02 0.000000e+00
8.760000e-02 7.300000e-02 0.000000e+00
1.022000e-01 7.300000e-02 0.000000e+00
1.168000e-01 7.300000e-02 0.000000e+00
1.314000e-01 7.300000e-02 0.000000e+00
1.460000e-01 7.300000e-02 0.000000e+00
1.606000e-01 7.300000e-02 0.000000e+00
1.752000e-01 7.300000e-02 0.000000e+00
1.898000e-01 7.300000e-02 0.000000e+00
2.044000e-01 7.300000e-02 0.000000e+00
2.190000e-01 7.300000e-02 0.000000e+00
2.336000e-01 7.300000e-02 0.000000e+00
2.482000e-01 7.300000e-02 0.000000e+00
2.628000e-01 7.300000e-02 0.000000e+00
2.774000e-01 7.300000e-02 0.000000e+00
2.920000e-01 7.300000e-02 0.000000e+00
3.066000e-01 7.300000e-02 0.000000e+00
3.212000e-01 7.300000e-02 0.000000e+00
3.358000e-01 7.300000e-02 0.000000e+00
3.504000e-01 7.300000e-02 0.000000e+00
3.650000e-01 7.300000e-02 0.000000e+00
3.796000e-01 7.300000e-02 0.000000e+00
3.942000e-01 7.300000e-02 0.000000e+00
4.088000e-01 7.300000e-02 0.000000e+00
4.234000e-01 7.300000e-02 0.000000e+00
4.380000e-01 7.300000e-02 0.000000e+00
4.526000e-01 7.300000e-02 0.000000e+00
4.672000e-01 7.300000e-02 0.000000e+00
4.818000e-01 7.300000e-02 0.000000e+00
4.964000e-01 7.300000e-02 0.000000e+00
5.110000e-01 7.300000e-02 0.000000e+00
5.256000e-01 7.300000e-02 0.000000e+00
5.402000e-01 7.300000e-02 0.000000e+00
5.548000e-01 7.300000e-02 0.000000e+00
5.694000e-01 7.300000e-02 0.000000e+00
5.840000e-01 7.300000e-02 0.000000e+00
0.000000e+00 8.760000e-02 0.000000e+00
1.460000e-02 8.760000e-02 0.000000e+00
2.920000e-02 8.760000e-02 0.000000e+00
4.380000e-02 8.760000e-02 0.000000e+00
5.840000e-02 8.760000e-02 0.000000e+00
7.300000e-02 8.760000e-02 0.000000e+00
8.760000e-02 8.760000e-02 0.000000e+00
1.022000e-01 8.760000e-02 0.000000e+00
[...]
POINT_DATA 11767
VECTORS Velocity float
0.000000e+00 0.000000e+00 0.000000e+00
2.619580e-02 0.000000e+00 0.000000e+00
4.663497e-02 0.000000e+00 0.000000e+00
6.665978e-02 0.000000e+00 0.000000e+00
8.682917e-02 0.000000e+00 0.000000e+00
1.076860e-01 0.000000e+00 0.000000e+00
1.291458e-01 0.000000e+00 0.000000e+00
1.512026e-01 0.000000e+00 0.000000e+00
1.736711e-01 0.000000e+00 0.000000e+00
1.963749e-01 0.000000e+00 0.000000e+00
2.191030e-01 0.000000e+00 0.000000e+00
2.416475e-01 0.000000e+00 0.000000e+00
2.637287e-01 0.000000e+00 0.000000e+00
2.849723e-01 0.000000e+00 0.000000e+00
3.049209e-01 0.000000e+00 0.000000e+00
3.229785e-01 0.000000e+00 0.000000e+00
3.382875e-01 0.000000e+00 0.000000e+00
3.498007e-01 0.000000e+00 0.000000e+00
3.558478e-01 0.000000e+00 0.000000e+00
3.548381e-01 0.000000e+00 0.000000e+00
3.440338e-01 0.000000e+00 0.000000e+00
3.223531e-01 0.000000e+00 0.000000e+00
2.863841e-01 0.000000e+00 0.000000e+00
2.366970e-01 0.000000e+00 0.000000e+00
1.776181e-01 0.000000e+00 0.000000e+00
1.155938e-01 0.000000e+00 0.000000e+00
5.523490e-02 0.000000e+00 0.000000e+00
6.197614e-03 0.000000e+00 0.000000e+00
-2.940479e-02 0.000000e+00 0.000000e+00
-4.565476e-02 0.000000e+00 0.000000e+00
-4.758509e-02 0.000000e+00 0.000000e+00
-3.615716e-02 0.000000e+00 0.000000e+00
-1.920277e-02 0.000000e+00 0.000000e+00
2.128831e-03 0.000000e+00 0.000000e+00
1.922910e-02 0.000000e+00 0.000000e+00
3.743732e-02 0.000000e+00 0.000000e+00
4.385041e-02 0.000000e+00 0.000000e+00
5.569905e-02 0.000000e+00 0.000000e+00
4.502855e-02 0.000000e+00 0.000000e+00
5.059013e-02 0.000000e+00 0.000000e+00
0.000000e+00 0.000000e+00 0.000000e+00
0.000000e+00 -3.529077e-15 0.000000e+00
2.619580e-02 2.313598e-14 0.000000e+00
4.663497e-02 6.973131e-15 0.000000e+00
6.665978e-02 1.281008e-14 0.000000e+00
8.682917e-02 1.724407e-15 0.000000e+00
1.076860e-01 2.417107e-15 0.000000e+00
1.291458e-01 1.157704e-15 0.000000e+00
1.512026e-01 -2.287659e-15 0.000000e+00
1.736711e-01 -2.686675e-15 0.000000e+00
1.963749e-01 -1.814982e-15 0.000000e+00
2.191030e-01 -9.475274e-16 0.000000e+00
2.416475e-01 -2.272492e-15 0.000000e+00
2.637287e-01 -1.565221e-15 0.000000e+00
2.849723e-01 -4.422200e-15 0.000000e+00
3.049209e-01 -3.724955e-15 0.000000e+00
3.229785e-01 -1.855191e-16 0.000000e+00
3.382875e-01 -1.522154e-15 0.000000e+00
3.498007e-01 -2.225046e-15 0.000000e+00
3.558478e-01 -5.132781e-16 0.000000e+00
3.548381e-01 -6.290167e-16 0.000000e+00
3.440338e-01 1.244294e-16 0.000000e+00
3.223531e-01 -9.971325e-16 0.000000e+00
2.863841e-01 1.710556e-15 0.000000e+00
2.366970e-01 -1.773535e-15 0.000000e+00
1.776181e-01 -7.354478e-16 0.000000e+00
1.155938e-01 -3.054286e-16 0.000000e+00
5.523490e-02 -1.182783e-14 0.000000e+00
6.197614e-03 5.364920e-15 0.000000e+00
-2.940479e-02 -4.742416e-15 0.000000e+00
-4.565476e-02 9.086472e-16 0.000000e+00
-4.758509e-02 -5.508462e-15 0.000000e+00
-3.615716e-02 2.612882e-15 0.000000e+00
-1.920277e-02 -2.440051e-14 0.000000e+00
2.128831e-03 2.108724e-14 0.000000e+00
1.922910e-02 -2.679666e-14 0.000000e+00
3.743732e-02 3.233396e-14 0.000000e+00
4.385041e-02 -3.709582e-14 0.000000e+00
5.569905e-02 2.572926e-14 0.000000e+00
4.502855e-02 -6.580552e-14 0.000000e+00
5.059013e-02 6.388557e-14 0.000000e+00
0.000000e+00 2.545511e-14 0.000000e+00
0.000000e+00 9.633308e-15 0.000000e+00
2.619580e-02 1.091294e-14 0.000000e+00
4.663497e-02 6.622685e-15 0.000000e+00
6.665978e-02 1.702055e-14 0.000000e+00
8.682917e-02 5.296487e-15 0.000000e+00
1.076860e-01 5.674538e-15 0.000000e+00
1.291458e-01 3.926646e-15 0.000000e+00
1.512026e-01 -1.462553e-15 0.000000e+00
1.736711e-01 1.380884e-15 0.000000e+00
1.963749e-01 -3.222865e-15 0.000000e+00
2.191030e-01 1.131885e-15 0.000000e+00
2.416475e-01 -4.222706e-15 0.000000e+00
2.637287e-01 -1.971391e-15 0.000000e+00
2.849723e-01 -5.465491e-15 0.000000e+00
3.049209e-01 -5.754706e-15 0.000000e+00
3.229785e-01 -2.578386e-15 0.000000e+00
3.382875e-01 -1.686861e-15 0.000000e+00
3.498007e-01 -1.537157e-15 0.000000e+00
3.558478e-01 -1.447284e-15 0.000000e+00
3.548381e-01 -3.065937e-15 0.000000e+00
3.440338e-01 5.441700e-16 0.000000e+00
3.223531e-01 -2.797765e-15 0.000000e+00
2.863841e-01 1.381850e-15 0.000000e+00
2.366970e-01 -5.157676e-15 0.000000e+00
1.776181e-01 3.177266e-15 0.000000e+00
1.155938e-01 -3.628636e-15 0.000000e+00
5.523490e-02 -1.064735e-14 0.000000e+00
6.197614e-03 5.762592e-15 0.000000e+00
-2.940479e-02 -7.283447e-15 0.000000e+00
-4.565476e-02 -1.024041e-14 0.000000e+00
-4.758509e-02 -3.845919e-15 0.000000e+00
-3.615716e-02 1.467498e-15 0.000000e+00
-1.920277e-02 -9.540537e-15 0.000000e+00
2.128831e-03 1.586071e-14 0.000000e+00
1.922910e-02 -1.148733e-14 0.000000e+00
3.743732e-02 -2.622239e-15 0.000000e+00
4.385041e-02 -6.546667e-15 0.000000e+00
5.569905e-02 6.298233e-15 0.000000e+00
4.502855e-02 -1.128170e-14 0.000000e+00
5.059013e-02 3.767003e-14 0.000000e+00
0.000000e+00 -2.947063e-15 0.000000e+00
0.000000e+00 5.132703e-14 0.000000e+00
2.619580e-02 8.270660e-15 0.000000e+00
4.663497e-02 6.081072e-15 0.000000e+00
6.665978e-02 2.092551e-14 0.000000e+00
8.682917e-02 6.226562e-15 0.000000e+00
1.076860e-01 5.397798e-15 0.000000e+00
1.291458e-01 7.066974e-15 0.000000e+00
1.512026e-01 -2.294821e-15 0.000000e+00
1.736711e-01 1.032565e-15 0.000000e+00
1.963749e-01 -3.952339e-15 0.000000e+00
2.191030e-01 1.199942e-15 0.000000e+00
2.416475e-01 -4.208542e-15 0.000000e+00
2.637287e-01 -1.267050e-15 0.000000e+00
2.849723e-01 -5.885696e-15 0.000000e+00
3.049209e-01 -5.625473e-15 0.000000e+00
3.229785e-01 -1.907506e-15 0.000000e+00
3.382875e-01 -2.788068e-15 0.000000e+00
3.498007e-01 -2.903469e-15 0.000000e+00
3.558478e-01 5.673758e-16 0.000000e+00
3.548381e-01 -1.354306e-15 0.000000e+00
3.440338e-01 1.341389e-15 0.000000e+00
3.223531e-01 -2.719088e-15 0.000000e+00
2.863841e-01 4.323634e-16 0.000000e+00
2.366970e-01 -3.761205e-15 0.000000e+00
1.776181e-01 1.579759e-15 0.000000e+00
1.155938e-01 -1.432230e-15 0.000000e+00
5.523490e-02 -1.462523e-14 0.000000e+00
6.197614e-03 3.650634e-16 0.000000e+00
-2.940479e-02 -5.627934e-15 0.000000e+00
-4.565476e-02 -5.149104e-15 0.000000e+00
-4.758509e-02 -5.216585e-15 0.000000e+00
-3.615716e-02 -5.970147e-15 0.000000e+00
-1.920277e-02 -2.247984e-14 0.000000e+00
2.128831e-03 2.754214e-14 0.000000e+00
1.922910e-02 -2.245465e-14 0.000000e+00
3.743732e-02 1.155372e-14 0.000000e+00
4.385041e-02 -3.490076e-14 0.000000e+00
5.569905e-02 3.391007e-14 0.000000e+00
4.502855e-02 -4.323601e-14 0.000000e+00
5.059013e-02 6.781312e-14 0.000000e+00
0.000000e+00 -1.449190e-15 0.000000e+00
0.000000e+00 3.381800e-14 0.000000e+00
2.619580e-02 -1.123790e-15 0.000000e+00
4.663497e-02 2.745586e-15 0.000000e+00
6.665978e-02 1.844198e-14 0.000000e+00
8.682917e-02 4.448973e-15 0.000000e+00
1.076860e-01 3.751044e-15 0.000000e+00
1.291458e-01 5.539477e-15 0.000000e+00
1.512026e-01 -4.142808e-15 0.000000e+00
1.736711e-01 -1.175354e-15 0.000000e+00
1.963749e-01 -2.488606e-15 0.000000e+00
2.191030e-01 1.405808e-15 0.000000e+00
2.416475e-01 -4.874626e-15 0.000000e+00
2.637287e-01 -6.224503e-16 0.000000e+00
2.849723e-01 -5.937106e-15 0.000000e+00
3.049209e-01 -5.167473e-15 0.000000e+00
3.229785e-01 -1.683486e-15 0.000000e+00
3.382875e-01 -2.924516e-15 0.000000e+00
3.498007e-01 -1.528637e-15 0.000000e+00
3.558478e-01 5.465471e-16 0.000000e+00
3.548381e-01 -2.364792e-15 0.000000e+00
3.440338e-01 1.904460e-15 0.000000e+00
3.223531e-01 -2.401970e-15 0.000000e+00
2.863841e-01 1.085860e-15 0.000000e+00
2.366970e-01 -5.685977e-15 0.000000e+00
1.776181e-01 1.406560e-15 0.000000e+00
1.155938e-01 -8.066982e-16 0.000000e+00
5.523490e-02 -8.880805e-15 0.000000e+00
6.197614e-03 -1.197150e-15 0.000000e+00
-2.940479e-02 -2.619797e-15 0.000000e+00
-4.565476e-02 -5.636344e-15 0.000000e+00
-4.758509e-02 -7.590182e-15 0.000000e+00
-3.615716e-02 5.419141e-15 0.000000e+00
-1.920277e-02 -1.306560e-14 0.000000e+00
2.128831e-03 1.431770e-14 0.000000e+00
1.922910e-02 -6.635747e-15 0.000000e+00
3.743732e-02 -6.533085e-15 0.000000e+00
4.385041e-02 -2.293141e-15 0.000000e+00
5.569905e-02 -5.182095e-15 0.000000e+00
4.502855e-02 8.722701e-15 0.000000e+00
5.059013e-02 2.260625e-14 0.000000e+00
0.000000e+00 -3.727983e-15 0.000000e+00
0.000000e+00 -3.939978e-14 0.000000e+00
2.619580e-02 -7.161798e-15 0.000000e+00
4.663497e-02 -9.423473e-15 0.000000e+00
6.665978e-02 1.023516e-14 0.000000e+00
8.682917e-02 -4.739593e-15 0.000000e+00
1.076860e-01 6.655230e-16 0.000000e+00
1.291458e-01 -1.880913e-16 0.000000e+00
1.512026e-01 -2.238567e-16 0.000000e+00
1.736711e-01 -8.072295e-16 0.000000e+00
1.963749e-01 -1.477878e-15 0.000000e+00
2.191030e-01 6.276384e-16 0.000000e+00
2.416475e-01 -3.314328e-15 0.000000e+00
2.637287e-01 -1.129935e-15 0.000000e+00
2.849723e-01 -3.986674e-15 0.000000e+00
3.049209e-01 -2.867054e-15 0.000000e+00
3.229785e-01 -1.238861e-15 0.000000e+00
3.382875e-01 -3.668539e-15 0.000000e+00
3.498007e-01 -1.115355e-15 0.000000e+00
3.558478e-01 -5.088910e-16 0.000000e+00
3.548381e-01 -4.485180e-16 0.000000e+00
3.440338e-01 -1.193549e-15 0.000000e+00
3.223531e-01 -4.881706e-16 0.000000e+00
2.863841e-01 -2.902271e-15 0.000000e+00
2.366970e-01 -4.377546e-15 0.000000e+00
1.776181e-01 -2.827912e-15 0.000000e+00
1.155938e-01 3.718578e-15 0.000000e+00
5.523490e-02 -1.427852e-14 0.000000e+00
6.197614e-03 5.409766e-15 0.000000e+00
-2.940479e-02 -4.585037e-15 0.000000e+00
-4.565476e-02 -6.192789e-15 0.000000e+00
-4.758509e-02 -2.815976e-15 0.000000e+00
-3.615716e-02 -7.421721e-15 0.000000e+00
-1.920277e-02 -2.181652e-14 0.000000e+00
2.128831e-03 2.521186e-14 0.000000e+00
1.922910e-02 -3.788713e-14 0.000000e+00
3.743732e-02 3.256183e-14 0.000000e+00
4.385041e-02 -4.270468e-14 0.000000e+00
5.569905e-02 3.128951e-14 0.000000e+00
4.502855e-02 -5.850925e-14 0.000000e+00
5.059013e-02 5.569014e-14 0.000000e+00
0.000000e+00 3.300148e-14 0.000000e+00
0.000000e+00 0.000000e+00 0.000000e+00
2.619580e-02 0.000000e+00 0.000000e+00
4.663497e-02 0.000000e+00 0.000000e+00
6.665978e-02 0.000000e+00 0.000000e+00
8.682917e-02 0.000000e+00 0.000000e+00
1.076860e-01 0.000000e+00 0.000000e+00
1.291458e-01 0.000000e+00 0.000000e+00
1.512026e-01 0.000000e+00 0.000000e+00
1.736711e-01 0.000000e+00 0.000000e+00
1.963749e-01 0.000000e+00 0.000000e+00
2.191030e-01 0.000000e+00 0.000000e+00
2.416475e-01 0.000000e+00 0.000000e+00
2.637287e-01 0.000000e+00 0.000000e+00
2.849723e-01 0.000000e+00 0.000000e+00
3.049209e-01 0.000000e+00 0.000000e+00
3.229785e-01 0.000000e+00 0.000000e+00
3.382875e-01 0.000000e+00 0.000000e+00
3.498007e-01 0.000000e+00 0.000000e+00
3.558478e-01 0.000000e+00 0.000000e+00
3.548381e-01 0.000000e+00 0.000000e+00
3.440338e-01 0.000000e+00 0.000000e+00
3.223531e-01 0.000000e+00 0.000000e+00
2.863841e-01 0.000000e+00 0.000000e+00
2.366970e-01 0.000000e+00 0.000000e+00
1.776181e-01 0.000000e+00 0.000000e+00
1.155938e-01 0.000000e+00 0.000000e+00
5.523490e-02 0.000000e+00 0.000000e+00
6.197614e-03 0.000000e+00 0.000000e+00
-2.940479e-02 0.000000e+00 0.000000e+00
-4.565476e-02 0.000000e+00 0.000000e+00
-4.758509e-02 0.000000e+00 0.000000e+00
-3.615716e-02 0.000000e+00 0.000000e+00
-1.920277e-02 0.000000e+00 0.000000e+00
2.128831e-03 0.000000e+00 0.000000e+00
1.922910e-02 0.000000e+00 0.000000e+00
3.743732e-02 0.000000e+00 0.000000e+00
4.385041e-02 0.000000e+00 0.000000e+00
5.569905e-02 0.000000e+00 0.000000e+00
4.502855e-02 0.000000e+00 0.000000e+00
5.059013e-02 0.000000e+00 0.000000e+00
0.000000e+00 0.000000e+00 0.000000e+00
0.000000e+00 0.000000e+00 -2.532239e-02
1.345419e-02 0.000000e+00 -2.286005e-02
2.940677e-02 0.000000e+00 -2.124584e-02
4.727998e-02 0.000000e+00 -2.225950e-02
6.692141e-02 0.000000e+00 -2.295920e-02
8.780063e-02 0.000000e+00 -2.381300e-02
1.096603e-01 0.000000e+00 -2.447524e-02
1.321964e-01 0.000000e+00 -2.501075e-02
1.552021e-01 0.000000e+00 -2.533876e-02
1.784435e-01 0.000000e+00 -2.546540e-02
2.017112e-01 0.000000e+00 -2.537677e-02
2.247317e-01 0.000000e+00 -2.503967e-02
2.472467e-01 0.000000e+00 -2.439462e-02
2.689280e-01 0.000000e+00 -2.334517e-02
2.893463e-01 0.000000e+00 -2.179021e-02
3.078555e-01 0.000000e+00 -1.949263e-02
3.236123e-01 0.000000e+00 -1.626632e-02
3.353637e-01 0.000000e+00 -1.159702e-02
3.414819e-01 0.000000e+00 -5.303358e-03
3.398471e-01 0.000000e+00 3.358368e-03
3.280787e-01 0.000000e+00 1.408753e-02
3.033674e-01 0.000000e+00 2.717467e-02
2.649942e-01 0.000000e+00 4.122239e-02
2.150211e-01 0.000000e+00 5.355795e-02
1.517024e-01 0.000000e+00 6.091232e-02
8.385497e-02 0.000000e+00 6.193597e-02
1.901583e-02 0.000000e+00 5.447712e-02
-3.178522e-02 0.000000e+00 4.052977e-02
-6.510272e-02 0.000000e+00 2.252437e-02
-7.721220e-02 0.000000e+00 4.537563e-03
-7.412040e-02 0.000000e+00 -9.584537e-03
-5.750553e-02 0.000000e+00 -1.892007e-02
-3.637925e-02 0.000000e+00 -2.361444e-02
-1.241332e-02 0.000000e+00 -2.231201e-02
6.669637e-03 0.000000e+00 -2.148936e-02
2.454880e-02 0.000000e+00 -1.340647e-02
3.090396e-02 0.000000e+00 -1.295846e-02
4.022824e-02 0.000000e+00 -1.120156e-03
3.325756e-02 0.000000e+00 -2.071763e-03
3.226766e-02 0.000000e+00 1.346185e-02
0.000000e+00 0.000000e+00 5.647432e-02
0.000000e+00 -1.611764e-15 -2.532239e-02
1.345419e-02 9.686201e-15 -2.286005e-02
2.940677e-02 -1.174350e-14 -2.124584e-02
4.727998e-02 1.387757e-15 -2.225950e-02
6.692141e-02 -3.443045e-15 -2.295920e-02
8.780063e-02 3.738651e-16 -2.381300e-02
1.096603e-01 -2.052357e-15 -2.447524e-02
1.321964e-01 -2.519373e-15 -2.501075e-02
1.552021e-01 -1.840743e-15 -2.533876e-02
1.784435e-01 -3.892438e-16 -2.546540e-02
2.017112e-01 -5.254394e-16 -2.537677e-02
2.247317e-01 -1.327795e-15 -2.503967e-02
2.472467e-01 -1.149353e-16 -2.439462e-02
2.689280e-01 1.066574e-15 -2.334517e-02
2.893463e-01 4.161021e-16 -2.179021e-02
3.078555e-01 -1.093653e-15 -1.949263e-02
3.236123e-01 -3.094830e-15 -1.626632e-02
3.353637e-01 8.096430e-16 -1.159702e-02
3.414819e-01 -2.702649e-15 -5.303358e-03
3.398471e-01 -1.528857e-15 3.358368e-03
3.280787e-01 -8.473590e-17 1.408753e-02
3.033674e-01 -2.665931e-15 2.717467e-02
2.649942e-01 -4.691563e-16 4.122239e-02
2.150211e-01 -3.109008e-15 5.355795e-02
1.517024e-01 1.279191e-15 6.091232e-02
8.385497e-02 -1.338627e-15 6.193597e-02
1.901583e-02 1.647711e-15 5.447712e-02
-3.178522e-02 1.919494e-15 4.052977e-02
-6.510272e-02 -3.346598e-15 2.252437e-02
-7.721220e-02 -8.535009e-16 4.537563e-03
-7.412040e-02 -2.581551e-15 -9.584537e-03
-5.750553e-02 2.515287e-16 -1.892007e-02
-3.637925e-02 -1.287421e-14 -2.361444e-02
-1.241332e-02 2.845090e-14 -2.231201e-02
6.669637e-03 -1.676825e-14 -2.148936e-02
2.454880e-02 1.422973e-14 -1.340647e-02
3.090396e-02 -1.736272e-14 -1.295846e-02
4.022824e-02 1.405417e-14 -1.120156e-03
3.325756e-02 -2.637751e-14 -2.071763e-03
3.226766e-02 2.460082e-14 1.346185e-02
0.000000e+00 -1.967854e-14 5.647432e-02
0.000000e+00 1.689013e-15 -2.532239e-02
1.345419e-02 5.081885e-15 -2.286005e-02
2.940677e-02 -9.783225e-15 -2.124584e-02
4.727998e-02 -3.196429e-15 -2.225950e-02
6.692141e-02 -2.689166e-15 -2.295920e-02
8.780063e-02 8.656976e-16 -2.381300e-02
1.096603e-01 -2.140934e-15 -2.447524e-02
1.321964e-01 -1.136359e-15 -2.501075e-02
1.552021e-01 -4.386161e-16 -2.533876e-02
1.784435e-01 -2.763957e-15 -2.546540e-02
2.017112e-01 -1.815098e-15 -2.537677e-02
2.247317e-01 -6.788855e-17 -2.503967e-02
2.472467e-01 -8.705738e-16 -2.439462e-02
2.689280e-01 -4.848212e-17 -2.334517e-02
2.893463e-01 -6.055621e-16 -2.179021e-02
3.078555e-01 1.142581e-15 -1.949263e-02
3.236123e-01 -3.112362e-15 -1.626632e-02
3.353637e-01 -1.734328e-15 -1.159702e-02
3.414819e-01 -5.745873e-16 -5.303358e-03
3.398471e-01 -2.834503e-15 3.358368e-03
3.280787e-01 1.939984e-15 1.408753e-02
3.033674e-01 -1.212435e-15 2.717467e-02
2.649942e-01 1.161948e-15 4.122239e-02
2.150211e-01 -6.074357e-15 5.355795e-02
1.517024e-01 -1.083076e-15 6.091232e-02
8.385497e-02 6.804781e-16 6.193597e-02
1.901583e-02 2.227490e-15 5.447712e-02
-3.178522e-02 2.677141e-15 4.052977e-02
-6.510272e-02 -2.125878e-15 2.252437e-02
-7.721220e-02 1.877583e-16 4.537563e-03
-7.412040e-02 -9.550598e-15 -9.584537e-03
-5.750553e-02 -8.209993e-15 -1.892007e-02
-3.637925e-02 -9.955425e-15 -2.361444e-02
-1.241332e-02 1.348789e-14 -2.231201e-02
6.669637e-03 4.187036e-15 -2.148936e-02
2.454880e-02 -3.010005e-15 -1.340647e-02
3.090396e-02 -5.994852e-18 -1.295846e-02
4.022824e-02 -1.113973e-14 -1.120156e-03
3.325756e-02 -1.101222e-14 -2.071763e-03
3.226766e-02 9.872782e-15 1.346185e-02
0.000000e+00 -2.670734e-14 5.647432e-02
0.000000e+00 6.555794e-15 -2.532239e-02
1.345419e-02 3.441604e-15 -2.286005e-02
2.940677e-02 -1.187871e-14 -2.124584e-02
4.727998e-02 1.164265e-15 -2.225950e-02
6.692141e-02 1.786633e-16 -2.295920e-02
8.780063e-02 3.492518e-15 -2.381300e-02
1.096603e-01 1.452986e-15 -2.447524e-02
1.321964e-01 -1.733112e-15 -2.501075e-02
1.552021e-01 4.008852e-16 -2.533876e-02
1.784435e-01 -2.141355e-15 -2.546540e-02
2.017112e-01 -3.972480e-16 -2.537677e-02
2.247317e-01 1.829951e-15 -2.503967e-02
2.472467e-01 -1.942286e-17 -2.439462e-02
2.689280e-01 -9.156637e-17 -2.334517e-02
2.893463e-01 -9.325590e-16 -2.179021e-02
3.078555e-01 -7.972888e-17 -1.949263e-02
3.236123e-01 -2.733472e-15 -1.626632e-02
3.353637e-01 -4.733687e-17 -1.159702e-02
3.414819e-01 -1.776210e-15 -5.303358e-03
3.398471e-01 -2.025721e-15 3.358368e-03
3.280787e-01 1.266250e-16 1.408753e-02
3.033674e-01 -3.599154e-15 2.717467e-02
2.649942e-01 2.402648e-15 4.122239e-02
2.150211e-01 -5.635879e-15 5.355795e-02
1.517024e-01 2.161597e-15 6.091232e-02
8.385497e-02 5.415710e-16 6.193597e-02
1.901583e-02 5.895222e-16 5.447712e-02
-3.178522e-02 6.348162e-15 4.052977e-02
-6.510272e-02 -1.343342e-15 2.252437e-02
-7.721220e-02 4.778011e-16 4.537563e-03
-7.412040e-02 -1.187031e-14 -9.584537e-03
-5.750553e-02 2.073580e-16 -1.892007e-02
-3.637925e-02 -1.468003e-14 -2.361444e-02
-1.241332e-02 3.363386e-14 -2.231201e-02
6.669637e-03 -1.789461e-14 -2.148936e-02
2.454880e-02 2.914801e-14 -1.340647e-02
3.090396e-02 -2.548467e-14 -1.295846e-02
4.022824e-02 9.892237e-15 -1.120156e-03
3.325756e-02 -3.005594e-14 -2.071763e-03
3.226766e-02 3.750727e-14 1.346185e-02
0.000000e+00 -4.249589e-14 5.647432e-02
0.000000e+00 1.447835e-14 -2.532239e-02
1.345419e-02 4.557301e-15 -2.286005e-02
2.940677e-02 -8.737322e-15 -2.124584e-02
4.727998e-02 5.000345e-15 -2.225950e-02
6.692141e-02 2.988523e-15 -2.295920e-02
8.780063e-02 4.591857e-15 -2.381300e-02
1.096603e-01 1.936084e-15 -2.447524e-02
1.321964e-01 -2.432057e-15 -2.501075e-02
1.552021e-01 6.789172e-17 -2.533876e-02
1.784435e-01 -1.938811e-15 -2.546540e-02
2.017112e-01 -9.217435e-16 -2.537677e-02
2.247317e-01 6.489531e-16 -2.503967e-02
2.472467e-01 -5.399937e-16 -2.439462e-02
2.689280e-01 1.370842e-15 -2.334517e-02
2.893463e-01 -1.175878e-15 -2.179021e-02
3.078555e-01 -6.953348e-16 -1.949263e-02
3.236123e-01 -2.974833e-15 -1.626632e-02
3.353637e-01 -4.436461e-16 -1.159702e-02
3.414819e-01 -1.382604e-15 -5.303358e-03
3.398471e-01 -1.995410e-15 3.358368e-03
3.280787e-01 4.324987e-16 1.408753e-02
3.033674e-01 -4.216664e-15 2.717467e-02
2.649942e-01 2.009333e-15 4.122239e-02
2.150211e-01 -2.950288e-15 5.355795e-02
1.517024e-01 1.615350e-15 6.091232e-02
8.385497e-02 -2.618122e-15 6.193597e-02
1.901583e-02 -1.576827e-16 5.447712e-02
-3.178522e-02 5.096634e-15 4.052977e-02
-6.510272e-02 -6.253062e-16 2.252437e-02
-7.721220e-02 -2.972067e-15 4.537563e-03
-7.412040e-02 -9.223387e-15 -9.584537e-03
-5.750553e-02 -7.884467e-15 -1.892007e-02
-3.637925e-02 -3.909325e-15 -2.361444e-02
-1.241332e-02 1.359702e-14 -2.231201e-02
6.669637e-03 -1.211666e-17 -2.148936e-02
2.454880e-02 7.777186e-16 -1.340647e-02
3.090396e-02 -4.706350e-16 -1.295846e-02
4.022824e-02 -4.502022e-15 -1.120156e-03
3.325756e-02 -1.421745e-14 -2.071763e-03
3.226766e-02 1.443613e-14 1.346185e-02
0.000000e+00 -2.675922e-14 5.647432e-02
0.000000e+00 -2.839679e-15 -2.532239e-02
1.345419e-02 6.162312e-15 -2.286005e-02
2.940677e-02 -9.365723e-15 -2.124584e-02
4.727998e-02 4.697030e-15 -2.225950e-02
6.692141e-02 -1.104284e-15 -2.295920e-02
8.780063e-02 1.403611e-15 -2.381300e-02
1.096603e-01 1.065616e-15 -2.447524e-02
1.321964e-01 2.034089e-15 -2.501075e-02