# vtk DataFile Version 3.0
vtk output
ASCII
DATASET UNSTRUCTURED_GRID
POINTS 11767 float
0.000000e+00 0.000000e+00 0.000000e+00
1.460000e-02 0.000000e+00 0.000000e+00
2.920000e-02 0.000000e+00 0.000000e+00
4.380000e-02 0.000000e+00 0.000000e+00
5.840000e-02 0.000000e+00 0.000000e+00
7.300000e-02 0.000000e+00 0.000000e+00
8.760000e-02 0.000000e+00 0.000000e+00
1.022000e-01 0.000000e+00 0.000000e+00
1.168000e-01 0.000000e+00 0.000000e+00
1.314000e-01 0.000000e+00 0.000000e+00
1.460000e-01 0.000000e+00 0.000000e+00
1.606000e-01 0.000000e+00 0.000000e+00
1.752000e-01 0.000000e+00 0.000000e+00
1.898000e-01 0.000000e+00 0.000000e+00
2.044000e-01 0.000000e+00 0.000000e+00
2.190000e-01 0.000000e+00 0.000000e+00
2.336000e-01 0.000000e+00 0.000000e+00
2.482000e-01 0.000000e+00 0.000000e+00
2.628000e-01 0.000000e+00 0.000000e+00
2.774000e-01 0.000000e+00 0.000000e+00
2.920000e-01 0.000000e+00 0.000000e+00
3.066000e-01 0.000000e+00 0.000000e+00
3.212000e-01 0.000000e+00 0.000000e+00
3.358000e-01 0.000000e+00 0.000000e+00
3.504000e-01 0.000000e+00 0.000000e+00
3.650000e-01 0.000000e+00 0.000000e+00
3.796000e-01 0.000000e+00 0.000000e+00
3.942000e-01 0.000000e+00 0.000000e+00
4.088000e-01 0.000000e+00 0.000000e+00
4.234000e-01 0.000000e+00 0.000000e+00
4.380000e-01 0.000000e+00 0.000000e+00
4.526000e-01 0.000000e+00 0.000000e+00
4.672000e-01 0.000000e+00 0.000000e+00
4.818000e-01 0.000000e+00 0.000000e+00
4.964000e-01 0.000000e+00 0.000000e+00
5.110000e-01 0.000000e+00 0.000000e+00
5.256000e-01 0.000000e+00 0.000000e+00
5.402000e-01 0.000000e+00 0.000000e+00
5.548000e-01 0.000000e+00 0.000000e+00
5.694000e-01 0.000000e+00 0.000000e+00
5.840000e-01 0.000000e+00 0.000000e+00
0.000000e+00 1.460000e-02 0.000000e+00
1.460000e-02 1.460000e-02 0.000000e+00
2.920000e-02 1.460000e-02 0.000000e+00
4.380000e-02 1.460000e-02 0.000000e+00
5.840000e-02 1.460000e-02 0.000000e+00
7.300000e-02 1.460000e-02 0.000000e+00
8.760000e-02 1.460000e-02 0.000000e+00
1.022000e-01 1.460000e-02 0.000000e+00
1.168000e-01 1.460000e-02 0.000000e+00
1.314000e-01 1.460000e-02 0.000000e+00
1.460000e-01 1.460000e-02 0.000000e+00
1.606000e-01 1.460000e-02 0.000000e+00
1.752000e-01 1.460000e-02 0.000000e+00
1.898000e-01 1.460000e-02 0.000000e+00
2.044000e-01 1.460000e-02 0.000000e+00
2.190000e-01 1.460000e-02 0.000000e+00
2.336000e-01 1.460000e-02 0.000000e+00
2.482000e-01 1.460000e-02 0.000000e+00
2.628000e-01 1.460000e-02 0.000000e+00
2.774000e-01 1.460000e-02 0.000000e+00
2.920000e-01 1.460000e-02 0.000000e+00
3.066000e-01 1.460000e-02 0.000000e+00
3.212000e-01 1.460000e-02 0.000000e+00
3.358000e-01 1.460000e-02 0.000000e+00
3.504000e-01 1.460000e-02 0.000000e+00
3.650000e-01 1.460000e-02 0.000000e+00
3.796000e-01 1.460000e-02 0.000000e+00
3.942000e-01 1.460000e-02 0.000000e+00
4.088000e-01 1.460000e-02 0.000000e+00
4.234000e-01 1.460000e-02 0.000000e+00
4.380000e-01 1.460000e-02 0.000000e+00
4.526000e-01 1.460000e-02 0.000000e+00
4.672000e-01 1.460000e-02 0.000000e+00
4.818000e-01 1.460000e-02 0.000000e+00
4.964000e-01 1.460000e-02 0.000000e+00
5.110000e-01 1.460000e-02 0.000000e+00
5.256000e-01 1.460000e-02 0.000000e+00
5.402000e-01 1.460000e-02 0.000000e+00
5.548000e-01 1.460000e-02 0.000000e+00
5.694000e-01 1.460000e-02 0.000000e+00
5.840000e-01 1.460000e-02 0.000000e+00
0.000000e+00 2.920000e-02 0.000000e+00
1.460000e-02 2.920000e-02 0.000000e+00
2.920000e-02 2.920000e-02 0.000000e+00
4.380000e-02 2.920000e-02 0.000000e+00
5.840000e-02 2.920000e-02 0.000000e+00
7.300000e-02 2.920000e-02 0.000000e+00
8.760000e-02 2.920000e-02 0.000000e+00
1.022000e-01 2.920000e-02 0.000000e+00
1.168000e-01 2.920000e-02 0.000000e+00
1.314000e-01 2.920000e-02 0.000000e+00
1.460000e-01 2.920000e-02 0.000000e+00
1.606000e-01 2.920000e-02 0.000000e+00
1.752000e-01 2.920000e-02 0.000000e+00
1.898000e-01 2.920000e-02 0.000000e+00
2.044000e-01 2.920000e-02 0.000000e+00
2.190000e-01 2.920000e-02 0.000000e+00
2.336000e-01 2.920000e-02 0.000000e+00
2.482000e-01 2.920000e-02 0.000000e+00
2.628000e-01 2.920000e-02 0.000000e+00
2.774000e-01 2.920000e-02 0.000000e+00
2.920000e-01 2.920000e-02 0.000000e+00
3.066000e-01 2.920000e-02 0.000000e+00
3.212000e-01 2.920000e-02 0.000000e+00
3.358000e-01 2.920000e-02 0.000000e+00
3.504000e-01 2.920000e-02 0.000000e+00
3.650000e-01 2.920000e-02 0.000000e+00
3.796000e-01 2.920000e-02 0.000000e+00
3.942000e-01 2.920000e-02 0.000000e+00
4.088000e-01 2.920000e-02 0.000000e+00
4.234000e-01 2.920000e-02 0.000000e+00
4.380000e-01 2.920000e-02 0.000000e+00
4.526000e-01 2.920000e-02 0.000000e+00
4.672000e-01 2.920000e-02 0.000000e+00
4.818000e-01 2.920000e-02 0.000000e+00
4.964000e-01 2.920000e-02 0.000000e+00
5.110000e-01 2.920000e-02 0.000000e+00
5.256000e-01 2.920000e-02 0.000000e+00
5.402000e-01 2.920000e-02 0.000000e+00
5.548000e-01 2.920000e-02 0.000000e+00
5.694000e-01 2.920000e-02 0.000000e+00
5.840000e-01 2.920000e-02 0.000000e+00
0.000000e+00 4.380000e-02 0.000000e+00
1.460000e-02 4.380000e-02 0.000000e+00
2.920000e-02 4.380000e-02 0.000000e+00
4.380000e-02 4.380000e-02 0.000000e+00
5.840000e-02 4.380000e-02 0.000000e+00
7.300000e-02 4.380000e-02 0.000000e+00
8.760000e-02 4.380000e-02 0.000000e+00
1.022000e-01 4.380000e-02 0.000000e+00
1.168000e-01 4.380000e-02 0.000000e+00
1.314000e-01 4.380000e-02 0.000000e+00
1.460000e-01 4.380000e-02 0.000000e+00
1.606000e-01 4.380000e-02 0.000000e+00
1.752000e-01 4.380000e-02 0.000000e+00
1.898000e-01 4.380000e-02 0.000000e+00
2.044000e-01 4.380000e-02 0.000000e+00
2.190000e-01 4.380000e-02 0.000000e+00
2.336000e-01 4.380000e-02 0.000000e+00
2.482000e-01 4.380000e-02 0.000000e+00
2.628000e-01 4.380000e-02 0.000000e+00
2.774000e-01 4.380000e-02 0.000000e+00
2.920000e-01 4.380000e-02 0.000000e+00
3.066000e-01 4.380000e-02 0.000000e+00
3.212000e-01 4.380000e-02 0.000000e+00
3.358000e-01 4.380000e-02 0.000000e+00
3.504000e-01 4.380000e-02 0.000000e+00
3.650000e-01 4.380000e-02 0.000000e+00
3.796000e-01 4.380000e-02 0.000000e+00
3.942000e-01 4.380000e-02 0.000000e+00
4.088000e-01 4.380000e-02 0.000000e+00
4.234000e-01 4.380000e-02 0.000000e+00
4.380000e-01 4.380000e-02 0.000000e+00
4.526000e-01 4.380000e-02 0.000000e+00
4.672000e-01 4.380000e-02 0.000000e+00
4.818000e-01 4.380000e-02 0.000000e+00
4.964000e-01 4.380000e-02 0.000000e+00
5.110000e-01 4.380000e-02 0.000000e+00
5.256000e-01 4.380000e-02 0.000000e+00
5.402000e-01 4.380000e-02 0.000000e+00
5.548000e-01 4.380000e-02 0.000000e+00
5.694000e-01 4.380000e-02 0.000000e+00
5.840000e-01 4.380000e-02 0.000000e+00
0.000000e+00 5.840000e-02 0.000000e+00
1.460000e-02 5.840000e-02 0.000000e+00
2.920000e-02 5.840000e-02 0.000000e+00
4.380000e-02 5.840000e-02 0.000000e+00
5.840000e-02 5.840000e-02 0.000000e+00
7.300000e-02 5.840000e-02 0.000000e+00
8.760000e-02 5.840000e-02 0.000000e+00
1.022000e-01 5.840000e-02 0.000000e+00
1.168000e-01 5.840000e-02 0.000000e+00
1.314000e-01 5.840000e-02 0.000000e+00
1.460000e-01 5.840000e-02 0.000000e+00
1.606000e-01 5.840000e-02 0.000000e+00
1.752000e-01 5.840000e-02 0.000000e+00
1.898000e-01 5.840000e-02 0.000000e+00
2.044000e-01 5.840000e-02 0.000000e+00
2.190000e-01 5.840000e-02 0.000000e+00
2.336000e-01 5.840000e-02 0.000000e+00
2.482000e-01 5.840000e-02 0.000000e+00
2.628000e-01 5.840000e-02 0.000000e+00
2.774000e-01 5.840000e-02 0.000000e+00
2.920000e-01 5.840000e-02 0.000000e+00
3.066000e-01 5.840000e-02 0.000000e+00
3.212000e-01 5.840000e-02 0.000000e+00
3.358000e-01 5.840000e-02 0.000000e+00
3.504000e-01 5.840000e-02 0.000000e+00
3.650000e-01 5.840000e-02 0.000000e+00
3.796000e-01 5.840000e-02 0.000000e+00
3.942000e-01 5.840000e-02 0.000000e+00
4.088000e-01 5.840000e-02 0.000000e+00
4.234000e-01 5.840000e-02 0.000000e+00
4.380000e-01 5.840000e-02 0.000000e+00
4.526000e-01 5.840000e-02 0.000000e+00
4.672000e-01 5.840000e-02 0.000000e+00
4.818000e-01 5.840000e-02 0.000000e+00
4.964000e-01 5.840000e-02 0.000000e+00
5.110000e-01 5.840000e-02 0.000000e+00
5.256000e-01 5.840000e-02 0.000000e+00
5.402000e-01 5.840000e-02 0.000000e+00
5.548000e-01 5.840000e-02 0.000000e+00
5.694000e-01 5.840000e-02 0.000000e+00
5.840000e-01 5.840000e-02 0.000000e+00
0.000000e+00 7.300000e-02 0.000000e+00
1.460000e-02 7.300000e-02 0.000000e+00
2.920000e-02 7.300000e-02 0.000000e+00
4.380000e-02 7.300000e-02 0.000000e+00
5.840000e-02 7.300000e-02 0.000000e+00
7.300000e-02 7.300000e-02 0.000000e+00
8.760000e-02 7.300000e-02 0.000000e+00
1.022000e-01 7.300000e-02 0.000000e+00
1.168000e-01 7.300000e-02 0.000000e+00
1.314000e-01 7.300000e-02 0.000000e+00
1.460000e-01 7.300000e-02 0.000000e+00
1.606000e-01 7.300000e-02 0.000000e+00
1.752000e-01 7.300000e-02 0.000000e+00
1.898000e-01 7.300000e-02 0.000000e+00
2.044000e-01 7.300000e-02 0.000000e+00
2.190000e-01 7.300000e-02 0.000000e+00
2.336000e-01 7.300000e-02 0.000000e+00
2.482000e-01 7.300000e-02 0.000000e+00
2.628000e-01 7.300000e-02 0.000000e+00
2.774000e-01 7.300000e-02 0.000000e+00
2.920000e-01 7.300000e-02 0.000000e+00
3.066000e-01 7.300000e-02 0.000000e+00
3.212000e-01 7.300000e-02 0.000000e+00
3.358000e-01 7.300000e-02 0.000000e+00
3.504000e-01 7.300000e-02 0.000000e+00
3.650000e-01 7.300000e-02 0.000000e+00
3.796000e-01 7.300000e-02 0.000000e+00
3.942000e-01 7.300000e-02 0.000000e+00
4.088000e-01 7.300000e-02 0.000000e+00
4.234000e-01 7.300000e-02 0.000000e+00
4.380000e-01 7.300000e-02 0.000000e+00
4.526000e-01 7.300000e-02 0.000000e+00
4.672000e-01 7.300000e-02 0.000000e+00
4.818000e-01 7.300000e-02 0.000000e+00
4.964000e-01 7.300000e-02 0.000000e+00
5.110000e-01 7.300000e-02 0.000000e+00
5.256000e-01 7.300000e-02 0.000000e+00
5.402000e-01 7.300000e-02 0.000000e+00
5.548000e-01 7.300000e-02 0.000000e+00
5.694000e-01 7.300000e-02 0.000000e+00
5.840000e-01 7.300000e-02 0.000000e+00
0.000000e+00 8.760000e-02 0.000000e+00
1.460000e-02 8.760000e-02 0.000000e+00
2.920000e-02 8.760000e-02 0.000000e+00
4.380000e-02 8.760000e-02 0.000000e+00
5.840000e-02 8.760000e-02 0.000000e+00
7.300000e-02 8.760000e-02 0.000000e+00
8.760000e-02 8.760000e-02 0.000000e+00
1.022000e-01 8.760000e-02 0.000000e+00
[...]
POINT_DATA 11767
VECTORS Velocity float
0.000000e+00 0.000000e+00 0.000000e+00
9.466336e-03 0.000000e+00 0.000000e+00
1.423194e-02 0.000000e+00 0.000000e+00
1.716833e-02 0.000000e+00 0.000000e+00
1.876806e-02 0.000000e+00 0.000000e+00
1.982860e-02 0.000000e+00 0.000000e+00
2.041212e-02 0.000000e+00 0.000000e+00
2.049126e-02 0.000000e+00 0.000000e+00
2.001768e-02 0.000000e+00 0.000000e+00
1.923249e-02 0.000000e+00 0.000000e+00
1.848303e-02 0.000000e+00 0.000000e+00
1.820453e-02 0.000000e+00 0.000000e+00
1.883614e-02 0.000000e+00 0.000000e+00
2.084291e-02 0.000000e+00 0.000000e+00
2.441236e-02 0.000000e+00 0.000000e+00
2.924600e-02 0.000000e+00 0.000000e+00
3.496779e-02 0.000000e+00 0.000000e+00
4.124448e-02 0.000000e+00 0.000000e+00
4.781775e-02 0.000000e+00 0.000000e+00
5.444429e-02 0.000000e+00 0.000000e+00
6.084890e-02 0.000000e+00 0.000000e+00
6.678215e-02 0.000000e+00 0.000000e+00
7.199455e-02 0.000000e+00 0.000000e+00
7.635232e-02 0.000000e+00 0.000000e+00
7.976692e-02 0.000000e+00 0.000000e+00
8.230959e-02 0.000000e+00 0.000000e+00
8.407444e-02 0.000000e+00 0.000000e+00
8.529196e-02 0.000000e+00 0.000000e+00
8.609995e-02 0.000000e+00 0.000000e+00
8.670539e-02 0.000000e+00 0.000000e+00
8.714381e-02 0.000000e+00 0.000000e+00
8.745373e-02 0.000000e+00 0.000000e+00
8.755537e-02 0.000000e+00 0.000000e+00
8.718305e-02 0.000000e+00 0.000000e+00
8.619910e-02 0.000000e+00 0.000000e+00
8.413818e-02 0.000000e+00 0.000000e+00
8.011021e-02 0.000000e+00 0.000000e+00
7.465612e-02 0.000000e+00 0.000000e+00
6.204663e-02 0.000000e+00 0.000000e+00
4.684956e-02 0.000000e+00 0.000000e+00
0.000000e+00 0.000000e+00 0.000000e+00
0.000000e+00 -3.186112e-13 0.000000e+00
9.466336e-03 -3.257935e-13 0.000000e+00
1.423194e-02 -4.087540e-13 0.000000e+00
1.716833e-02 -5.427899e-13 0.000000e+00
1.876806e-02 -6.164657e-13 0.000000e+00
1.982860e-02 -5.804632e-13 0.000000e+00
2.041212e-02 -3.724829e-13 0.000000e+00
2.049126e-02 -1.868640e-13 0.000000e+00
2.001768e-02 -6.699044e-14 0.000000e+00
1.923249e-02 -1.664360e-14 0.000000e+00
1.848303e-02 6.744612e-14 0.000000e+00
1.820453e-02 1.111484e-13 0.000000e+00
1.883614e-02 2.339325e-13 0.000000e+00
2.084291e-02 2.251460e-13 0.000000e+00
2.441236e-02 6.283549e-14 0.000000e+00
2.924600e-02 -1.542148e-14 0.000000e+00
3.496779e-02 -1.334635e-13 0.000000e+00
4.124448e-02 -9.534372e-14 0.000000e+00
4.781775e-02 -1.044094e-13 0.000000e+00
5.444429e-02 -8.871810e-14 0.000000e+00
6.084890e-02 -7.998959e-14 0.000000e+00
6.678215e-02 -8.184809e-14 0.000000e+00
7.199455e-02 -1.119034e-13 0.000000e+00
7.635232e-02 -1.164830e-13 0.000000e+00
7.976692e-02 -1.582555e-13 0.000000e+00
8.230959e-02 -8.123102e-14 0.000000e+00
8.407444e-02 -1.137139e-13 0.000000e+00
8.529196e-02 -1.151328e-15 0.000000e+00
8.609995e-02 3.123125e-14 0.000000e+00
8.670539e-02 1.010394e-13 0.000000e+00
8.714381e-02 8.361200e-14 0.000000e+00
8.745373e-02 1.159994e-13 0.000000e+00
8.755537e-02 4.911917e-14 0.000000e+00
8.718305e-02 1.002388e-13 0.000000e+00
8.619910e-02 1.553270e-14 0.000000e+00
8.413818e-02 1.205336e-13 0.000000e+00
8.011021e-02 7.801993e-14 0.000000e+00
7.465612e-02 2.188722e-13 0.000000e+00
6.204663e-02 1.368139e-13 0.000000e+00
4.684956e-02 2.936377e-13 0.000000e+00
0.000000e+00 5.087088e-13 0.000000e+00
0.000000e+00 -5.010413e-13 0.000000e+00
9.466336e-03 -4.622264e-13 0.000000e+00
1.423194e-02 -5.913184e-13 0.000000e+00
1.716833e-02 -8.032670e-13 0.000000e+00
1.876806e-02 -8.996173e-13 0.000000e+00
1.982860e-02 -9.051135e-13 0.000000e+00
2.041212e-02 -6.080391e-13 0.000000e+00
2.049126e-02 -3.704197e-13 0.000000e+00
2.001768e-02 -1.522354e-13 0.000000e+00
1.923249e-02 -7.532918e-14 0.000000e+00
1.848303e-02 1.097320e-13 0.000000e+00
1.820453e-02 1.465419e-13 0.000000e+00
1.883614e-02 3.107281e-13 0.000000e+00
2.084291e-02 2.787607e-13 0.000000e+00
2.441236e-02 6.740966e-14 0.000000e+00
2.924600e-02 -5.648281e-14 0.000000e+00
3.496779e-02 -1.991516e-13 0.000000e+00
4.124448e-02 -1.718119e-13 0.000000e+00
4.781775e-02 -1.768135e-13 0.000000e+00
5.444429e-02 -1.460186e-13 0.000000e+00
6.084890e-02 -1.095030e-13 0.000000e+00
6.678215e-02 -1.105877e-13 0.000000e+00
7.199455e-02 -1.059703e-13 0.000000e+00
7.635232e-02 -9.564154e-14 0.000000e+00
7.976692e-02 -1.406427e-13 0.000000e+00
8.230959e-02 -5.723263e-14 0.000000e+00
8.407444e-02 -1.175912e-13 0.000000e+00
8.529196e-02 2.074791e-15 0.000000e+00
8.609995e-02 1.386249e-14 0.000000e+00
8.670539e-02 1.332666e-13 0.000000e+00
8.714381e-02 1.307480e-13 0.000000e+00
8.745373e-02 1.924596e-13 0.000000e+00
8.755537e-02 1.115448e-13 0.000000e+00
8.718305e-02 1.212003e-13 0.000000e+00
8.619910e-02 6.462017e-14 0.000000e+00
8.413818e-02 1.414171e-13 0.000000e+00
8.011021e-02 1.500854e-13 0.000000e+00
7.465612e-02 2.637065e-13 0.000000e+00
6.204663e-02 2.473744e-13 0.000000e+00
4.684956e-02 3.765600e-13 0.000000e+00
0.000000e+00 7.601617e-13 0.000000e+00
0.000000e+00 -3.592228e-13 0.000000e+00
9.466336e-03 -3.762636e-13 0.000000e+00
1.423194e-02 -4.709299e-13 0.000000e+00
1.716833e-02 -6.386219e-13 0.000000e+00
1.876806e-02 -7.041458e-13 0.000000e+00
1.982860e-02 -7.995689e-13 0.000000e+00
2.041212e-02 -6.423043e-13 0.000000e+00
2.049126e-02 -4.740682e-13 0.000000e+00
2.001768e-02 -2.430222e-13 0.000000e+00
1.923249e-02 -1.419220e-13 0.000000e+00
1.848303e-02 8.577701e-14 0.000000e+00
1.820453e-02 8.865841e-14 0.000000e+00
1.883614e-02 2.047050e-13 0.000000e+00
2.084291e-02 1.186363e-13 0.000000e+00
2.441236e-02 1.098863e-14 0.000000e+00
2.924600e-02 -6.847710e-14 0.000000e+00
3.496779e-02 -1.771241e-13 0.000000e+00
4.124448e-02 -1.456210e-13 0.000000e+00
4.781775e-02 -1.717059e-13 0.000000e+00
5.444429e-02 -1.403146e-13 0.000000e+00
6.084890e-02 -9.859619e-14 0.000000e+00
6.678215e-02 -7.400808e-14 0.000000e+00
7.199455e-02 -5.097836e-14 0.000000e+00
7.635232e-02 -1.395548e-14 0.000000e+00
7.976692e-02 -6.001623e-14 0.000000e+00
8.230959e-02 2.383810e-14 0.000000e+00
8.407444e-02 -8.467164e-14 0.000000e+00
8.529196e-02 1.695365e-14 0.000000e+00
8.609995e-02 -2.628604e-15 0.000000e+00
8.670539e-02 1.317247e-13 0.000000e+00
8.714381e-02 1.479243e-13 0.000000e+00
8.745373e-02 2.278611e-13 0.000000e+00
8.755537e-02 1.311676e-13 0.000000e+00
8.718305e-02 1.383519e-13 0.000000e+00
8.619910e-02 6.742405e-14 0.000000e+00
8.413818e-02 1.602486e-13 0.000000e+00
8.011021e-02 1.244972e-13 0.000000e+00
7.465612e-02 2.733689e-13 0.000000e+00
6.204663e-02 1.931686e-13 0.000000e+00
4.684956e-02 3.995766e-13 0.000000e+00
0.000000e+00 7.458566e-13 0.000000e+00
0.000000e+00 -2.239586e-13 0.000000e+00
9.466336e-03 -2.293442e-13 0.000000e+00
1.423194e-02 -2.619215e-13 0.000000e+00
1.716833e-02 -3.223133e-13 0.000000e+00
1.876806e-02 -3.302198e-13 0.000000e+00
1.982860e-02 -4.859865e-13 0.000000e+00
2.041212e-02 -5.008588e-13 0.000000e+00
2.049126e-02 -4.613657e-13 0.000000e+00
2.001768e-02 -2.633071e-13 0.000000e+00
1.923249e-02 -1.689217e-13 0.000000e+00
1.848303e-02 4.849299e-14 0.000000e+00
1.820453e-02 1.817444e-15 0.000000e+00
1.883614e-02 6.102275e-14 0.000000e+00
2.084291e-02 -5.853495e-14 0.000000e+00
2.441236e-02 -2.948248e-14 0.000000e+00
2.924600e-02 -6.464327e-14 0.000000e+00
3.496779e-02 -7.863396e-14 0.000000e+00
4.124448e-02 -6.775877e-14 0.000000e+00
4.781775e-02 -8.591716e-14 0.000000e+00
5.444429e-02 -7.430745e-14 0.000000e+00
6.084890e-02 -4.663163e-14 0.000000e+00
6.678215e-02 -5.054816e-14 0.000000e+00
7.199455e-02 -3.521793e-14 0.000000e+00
7.635232e-02 -2.112573e-14 0.000000e+00
7.976692e-02 -6.600832e-14 0.000000e+00
8.230959e-02 6.092857e-15 0.000000e+00
8.407444e-02 -7.693158e-14 0.000000e+00
8.529196e-02 1.976997e-14 0.000000e+00
8.609995e-02 1.343643e-14 0.000000e+00
8.670539e-02 1.273394e-13 0.000000e+00
8.714381e-02 1.352119e-13 0.000000e+00
8.745373e-02 2.133246e-13 0.000000e+00
8.755537e-02 1.257526e-13 0.000000e+00
8.718305e-02 1.336417e-13 0.000000e+00
8.619910e-02 6.664965e-14 0.000000e+00
8.413818e-02 1.338581e-13 0.000000e+00
8.011021e-02 1.167707e-13 0.000000e+00
7.465612e-02 2.188906e-13 0.000000e+00
6.204663e-02 1.896380e-13 0.000000e+00
4.684956e-02 3.058384e-13 0.000000e+00
0.000000e+00 6.299994e-13 0.000000e+00
0.000000e+00 -1.626242e-13 0.000000e+00
9.466336e-03 -1.238323e-13 0.000000e+00
1.423194e-02 -1.207539e-13 0.000000e+00
1.716833e-02 -1.264105e-13 0.000000e+00
1.876806e-02 -1.240094e-13 0.000000e+00
1.982860e-02 -2.209580e-13 0.000000e+00
2.041212e-02 -2.791520e-13 0.000000e+00
2.049126e-02 -2.688641e-13 0.000000e+00
2.001768e-02 -1.710933e-13 0.000000e+00
1.923249e-02 -1.088024e-13 0.000000e+00
1.848303e-02 1.455874e-14 0.000000e+00
1.820453e-02 -2.106090e-14 0.000000e+00
1.883614e-02 1.409451e-15 0.000000e+00
2.084291e-02 -9.963974e-14 0.000000e+00
2.441236e-02 -3.969201e-14 0.000000e+00
2.924600e-02 -3.728023e-14 0.000000e+00
3.496779e-02 -3.398573e-14 0.000000e+00
4.124448e-02 -3.955716e-15 0.000000e+00
4.781775e-02 -2.301789e-14 0.000000e+00
5.444429e-02 -2.536900e-14 0.000000e+00
6.084890e-02 -2.425856e-14 0.000000e+00
6.678215e-02 -3.315155e-14 0.000000e+00
7.199455e-02 -5.855451e-14 0.000000e+00
7.635232e-02 -5.684056e-14 0.000000e+00
7.976692e-02 -9.754918e-14 0.000000e+00
8.230959e-02 -2.784090e-14 0.000000e+00
8.407444e-02 -8.261631e-14 0.000000e+00
8.529196e-02 1.126619e-14 0.000000e+00
8.609995e-02 2.726325e-14 0.000000e+00
8.670539e-02 9.650460e-14 0.000000e+00
8.714381e-02 8.910886e-14 0.000000e+00
8.745373e-02 1.384578e-13 0.000000e+00
8.755537e-02 6.563016e-14 0.000000e+00
8.718305e-02 1.113313e-13 0.000000e+00
8.619910e-02 1.845491e-14 0.000000e+00
8.413818e-02 1.092242e-13 0.000000e+00
8.011021e-02 4.566288e-14 0.000000e+00
7.465612e-02 1.723700e-13 0.000000e+00
6.204663e-02 7.859360e-14 0.000000e+00
4.684956e-02 2.372004e-13 0.000000e+00
0.000000e+00 4.042541e-13 0.000000e+00
0.000000e+00 0.000000e+00 0.000000e+00
9.466336e-03 0.000000e+00 0.000000e+00
1.423194e-02 0.000000e+00 0.000000e+00
1.716833e-02 0.000000e+00 0.000000e+00
1.876806e-02 0.000000e+00 0.000000e+00
1.982860e-02 0.000000e+00 0.000000e+00
2.041212e-02 0.000000e+00 0.000000e+00
2.049126e-02 0.000000e+00 0.000000e+00
2.001768e-02 0.000000e+00 0.000000e+00
1.923249e-02 0.000000e+00 0.000000e+00
1.848303e-02 0.000000e+00 0.000000e+00
1.820453e-02 0.000000e+00 0.000000e+00
1.883614e-02 0.000000e+00 0.000000e+00
2.084291e-02 0.000000e+00 0.000000e+00
2.441236e-02 0.000000e+00 0.000000e+00
2.924600e-02 0.000000e+00 0.000000e+00
3.496779e-02 0.000000e+00 0.000000e+00
4.124448e-02 0.000000e+00 0.000000e+00
4.781775e-02 0.000000e+00 0.000000e+00
5.444429e-02 0.000000e+00 0.000000e+00
6.084890e-02 0.000000e+00 0.000000e+00
6.678215e-02 0.000000e+00 0.000000e+00
7.199455e-02 0.000000e+00 0.000000e+00
7.635232e-02 0.000000e+00 0.000000e+00
7.976692e-02 0.000000e+00 0.000000e+00
8.230959e-02 0.000000e+00 0.000000e+00
8.407444e-02 0.000000e+00 0.000000e+00
8.529196e-02 0.000000e+00 0.000000e+00
8.609995e-02 0.000000e+00 0.000000e+00
8.670539e-02 0.000000e+00 0.000000e+00
8.714381e-02 0.000000e+00 0.000000e+00
8.745373e-02 0.000000e+00 0.000000e+00
8.755537e-02 0.000000e+00 0.000000e+00
8.718305e-02 0.000000e+00 0.000000e+00
8.619910e-02 0.000000e+00 0.000000e+00
8.413818e-02 0.000000e+00 0.000000e+00
8.011021e-02 0.000000e+00 0.000000e+00
7.465612e-02 0.000000e+00 0.000000e+00
6.204663e-02 0.000000e+00 0.000000e+00
4.684956e-02 0.000000e+00 0.000000e+00
0.000000e+00 0.000000e+00 0.000000e+00
0.000000e+00 0.000000e+00 -8.311194e-03
-3.341822e-03 0.000000e+00 -6.353645e-03
-5.346231e-03 0.000000e+00 -4.155621e-03
-7.209770e-03 0.000000e+00 -3.321986e-03
-9.120908e-03 0.000000e+00 -2.602764e-03
-1.127417e-02 0.000000e+00 -2.250750e-03
-1.362944e-02 0.000000e+00 -1.864356e-03
-1.604075e-02 0.000000e+00 -1.500152e-03
-1.836223e-02 0.000000e+00 -1.227489e-03
-2.047149e-02 0.000000e+00 -1.240458e-03
-2.205236e-02 0.000000e+00 -1.651979e-03
-2.270090e-02 0.000000e+00 -2.483672e-03
-2.216368e-02 0.000000e+00 -3.645462e-03
-2.060010e-02 0.000000e+00 -4.972015e-03
-1.827362e-02 0.000000e+00 -6.187995e-03
-1.529987e-02 0.000000e+00 -7.085117e-03
-1.188643e-02 0.000000e+00 -7.691445e-03
-8.139683e-03 0.000000e+00 -8.046697e-03
-4.244764e-03 0.000000e+00 -8.214353e-03
-2.218448e-04 0.000000e+00 -8.172680e-03
3.746760e-03 0.000000e+00 -7.910482e-03
7.573250e-03 0.000000e+00 -7.419403e-03
1.103341e-02 0.000000e+00 -6.751491e-03
1.407060e-02 0.000000e+00 -5.972230e-03
1.655573e-02 0.000000e+00 -5.184054e-03
1.857297e-02 0.000000e+00 -4.463031e-03
2.012722e-02 0.000000e+00 -3.903392e-03
2.147219e-02 0.000000e+00 -3.538135e-03
2.276040e-02 0.000000e+00 -3.381032e-03
2.433156e-02 0.000000e+00 -3.377751e-03
2.619217e-02 0.000000e+00 -3.389998e-03
2.834007e-02 0.000000e+00 -3.335923e-03
3.038555e-02 0.000000e+00 -3.065823e-03
3.222981e-02 0.000000e+00 -2.540532e-03
3.340578e-02 0.000000e+00 -1.887979e-03
3.377810e-02 0.000000e+00 -1.850784e-04
3.281693e-02 0.000000e+00 5.564002e-04
3.046043e-02 0.000000e+00 5.394027e-03
2.507918e-02 0.000000e+00 6.845626e-03
1.675815e-02 0.000000e+00 2.167842e-02
0.000000e+00 0.000000e+00 4.066212e-02
0.000000e+00 3.452154e-14 -8.311194e-03
-3.341822e-03 8.256177e-14 -6.353645e-03
-5.346231e-03 1.718694e-13 -4.155621e-03
-7.209770e-03 3.249760e-13 -3.321986e-03
-9.120908e-03 3.396779e-13 -2.602764e-03
-1.127417e-02 2.047021e-13 -2.250750e-03
-1.362944e-02 -1.103735e-13 -1.864356e-03
-1.604075e-02 -3.118235e-13 -1.500152e-03
-1.836223e-02 -4.047444e-13 -1.227489e-03
-2.047149e-02 -4.046817e-13 -1.240458e-03
-2.205236e-02 -3.786359e-13 -1.651979e-03
-2.270090e-02 -4.055520e-13 -2.483672e-03
-2.216368e-02 -4.110939e-13 -3.645462e-03
-2.060010e-02 -4.272684e-13 -4.972015e-03
-1.827362e-02 -2.023781e-13 -6.187995e-03
-1.529987e-02 -1.153943e-13 -7.085117e-03
-1.188643e-02 -1.859248e-14 -7.691445e-03
-8.139683e-03 -1.797142e-14 -8.046697e-03
-4.244764e-03 -4.106448e-14 -8.214353e-03
-2.218448e-04 -8.002791e-14 -8.172680e-03
3.746760e-03 -2.587519e-14 -7.910482e-03
7.573250e-03 -6.908993e-14 -7.419403e-03
1.103341e-02 -1.343961e-14 -6.751491e-03
1.407060e-02 -5.763687e-14 -5.972230e-03
1.655573e-02 -6.180315e-14 -5.184054e-03
1.857297e-02 -2.009016e-13 -4.463031e-03
2.012722e-02 -3.206617e-13 -3.903392e-03
2.147219e-02 -3.819745e-13 -3.538135e-03
2.276040e-02 -4.658704e-13 -3.381032e-03
2.433156e-02 -3.386628e-13 -3.377751e-03
2.619217e-02 -1.129531e-13 -3.389998e-03
2.834007e-02 1.524379e-13 -3.335923e-03
3.038555e-02 2.170581e-13 -3.065823e-03
3.222981e-02 2.832529e-13 -2.540532e-03
3.340578e-02 9.921897e-14 -1.887979e-03
3.377810e-02 1.093335e-13 -1.850784e-04
3.281693e-02 -1.187142e-13 5.564002e-04
3.046043e-02 -8.723388e-15 5.394027e-03
2.507918e-02 -2.023223e-13 6.845626e-03
1.675815e-02 -5.643992e-14 2.167842e-02
0.000000e+00 -3.029975e-13 4.066212e-02
0.000000e+00 2.959910e-14 -8.311194e-03
-3.341822e-03 8.149108e-14 -6.353645e-03
-5.346231e-03 1.877635e-13 -4.155621e-03
-7.209770e-03 4.046044e-13 -3.321986e-03
-9.120908e-03 4.131047e-13 -2.602764e-03
-1.127417e-02 2.652576e-13 -2.250750e-03
-1.362944e-02 -1.318536e-13 -1.864356e-03
-1.604075e-02 -4.356300e-13 -1.500152e-03
-1.836223e-02 -5.551337e-13 -1.227489e-03
-2.047149e-02 -5.911554e-13 -1.240458e-03
-2.205236e-02 -5.575446e-13 -1.651979e-03
-2.270090e-02 -5.957677e-13 -2.483672e-03
-2.216368e-02 -5.812299e-13 -3.645462e-03
-2.060010e-02 -5.720468e-13 -4.972015e-03
-1.827362e-02 -2.736051e-13 -6.187995e-03
-1.529987e-02 -1.536780e-13 -7.085117e-03
-1.188643e-02 -2.406515e-15 -7.691445e-03
-8.139683e-03 -2.937927e-14 -8.046697e-03
-4.244764e-03 -5.029928e-15 -8.214353e-03
-2.218448e-04 -9.011929e-14 -8.172680e-03
3.746760e-03 -1.857001e-14 -7.910482e-03
7.573250e-03 -8.515259e-14 -7.419403e-03
1.103341e-02 2.535347e-14 -6.751491e-03
1.407060e-02 -2.374666e-14 -5.972230e-03
1.655573e-02 2.471721e-14 -5.184054e-03
1.857297e-02 -8.753512e-14 -4.463031e-03
2.012722e-02 -1.438018e-13 -3.903392e-03
2.147219e-02 -2.619403e-13 -3.538135e-03
2.276040e-02 -4.203436e-13 -3.381032e-03
2.433156e-02 -4.634764e-13 -3.377751e-03
2.619217e-02 -4.164127e-13 -3.389998e-03
2.834007e-02 -1.916689e-13 -3.335923e-03
3.038555e-02 -8.565156e-14 -3.065823e-03
3.222981e-02 1.539064e-13 -2.540532e-03
3.340578e-02 6.175529e-14 -1.887979e-03
3.377810e-02 1.042593e-13 -1.850784e-04
3.281693e-02 -7.714908e-14 5.564002e-04
3.046043e-02 -1.020963e-14 5.394027e-03
2.507918e-02 -1.110420e-13 6.845626e-03
1.675815e-02 -7.654301e-14 2.167842e-02
0.000000e+00 -3.606455e-13 4.066212e-02
0.000000e+00 -1.527399e-14 -8.311194e-03
-3.341822e-03 1.503927e-14 -6.353645e-03
-5.346231e-03 5.643898e-14 -4.155621e-03
-7.209770e-03 1.800540e-13 -3.321986e-03
-9.120908e-03 1.509693e-13 -2.602764e-03
-1.127417e-02 1.343142e-13 -2.250750e-03
-1.362944e-02 -6.657155e-14 -1.864356e-03
-1.604075e-02 -2.597639e-13 -1.500152e-03
-1.836223e-02 -3.936454e-13 -1.227489e-03
-2.047149e-02 -4.675114e-13 -1.240458e-03
-2.205236e-02 -4.734814e-13 -1.651979e-03
-2.270090e-02 -4.681017e-13 -2.483672e-03
-2.216368e-02 -4.333671e-13 -3.645462e-03
-2.060010e-02 -3.726383e-13 -4.972015e-03
-1.827362e-02 -1.733963e-13 -6.187995e-03
-1.529987e-02 -1.026226e-13 -7.085117e-03
-1.188643e-02 1.053041e-14 -7.691445e-03
-8.139683e-03 -6.830686e-15 -8.046697e-03
-4.244764e-03 1.232814e-14 -8.214353e-03
-2.218448e-04 -7.044317e-14 -8.172680e-03
3.746760e-03 1.556846e-14 -7.910482e-03
7.573250e-03 -6.265847e-14 -7.419403e-03
1.103341e-02 5.333140e-14 -6.751491e-03
1.407060e-02 4.499853e-14 -5.972230e-03
1.655573e-02 1.355446e-13 -5.184054e-03
1.857297e-02 9.389739e-14 -4.463031e-03
2.012722e-02 1.110916e-13 -3.903392e-03
2.147219e-02 5.486428e-14 -3.538135e-03
2.276040e-02 -1.704354e-13 -3.381032e-03
2.433156e-02 -3.915854e-13 -3.377751e-03
2.619217e-02 -6.363261e-13 -3.389998e-03
2.834007e-02 -5.758722e-13 -3.335923e-03
3.038555e-02 -4.704411e-13 -3.065823e-03
3.222981e-02 -7.748520e-14 -2.540532e-03
3.340578e-02 -6.748779e-14 -1.887979e-03
3.377810e-02 9.678185e-14 -1.850784e-04
3.281693e-02 -7.445100e-14 5.564002e-04
3.046043e-02 4.619300e-14 5.394027e-03
2.507918e-02 -1.080115e-13 6.845626e-03
1.675815e-02 1.631515e-14 2.167842e-02
0.000000e+00 -3.365408e-13 4.066212e-02
0.000000e+00 -7.290857e-14 -8.311194e-03
-3.341822e-03 -7.774613e-14 -6.353645e-03
-5.346231e-03 -6.986441e-14 -4.155621e-03
-7.209770e-03 -5.564556e-14 -3.321986e-03
-9.120908e-03 -1.127426e-13 -2.602764e-03
-1.127417e-02 -3.154350e-14 -2.250750e-03
-1.362944e-02 8.724766e-15 -1.864356e-03
-1.604075e-02 -3.905496e-14 -1.500152e-03
-1.836223e-02 -1.184511e-13 -1.227489e-03
-2.047149e-02 -2.151704e-13 -1.240458e-03
-2.205236e-02 -2.365597e-13 -1.651979e-03
-2.270090e-02 -1.961224e-13 -2.483672e-03
-2.216368e-02 -1.351109e-13 -3.645462e-03
-2.060010e-02 -6.940351e-14 -4.972015e-03
-1.827362e-02 -2.975511e-14 -6.187995e-03
-1.529987e-02 -3.182233e-14 -7.085117e-03
-1.188643e-02 -9.872565e-15 -7.691445e-03
-8.139683e-03 -3.218264e-14 -8.046697e-03
-4.244764e-03 -1.088702e-14 -8.214353e-03
-2.218448e-04 -8.788528e-14 -8.172680e-03
3.746760e-03 -1.329982e-14 -7.910482e-03
7.573250e-03 -7.527420e-14 -7.419403e-03
1.103341e-02 3.959978e-14 -6.751491e-03
1.407060e-02 7.127152e-15 -5.972230e-03
1.655573e-02 9.699978e-14 -5.184054e-03
1.857297e-02 4.186600e-14 -4.463031e-03
2.012722e-02 4.468212e-14 -3.903392e-03
2.147219e-02 -3.330826e-14 -3.538135e-03
2.276040e-02 -2.041160e-13 -3.381032e-03
2.433156e-02 -3.539263e-13 -3.377751e-03
2.619217e-02 -4.861572e-13 -3.389998e-03
2.834007e-02 -4.490948e-13 -3.335923e-03
3.038555e-02 -3.875342e-13 -3.065823e-03
3.222981e-02 -1.052230e-13 -2.540532e-03
3.340578e-02 -8.973223e-14 -1.887979e-03
3.377810e-02 3.310538e-14 -1.850784e-04
3.281693e-02 -7.494398e-14 5.564002e-04
3.046043e-02 6.111357e-15 5.394027e-03
2.507918e-02 -7.151480e-14 6.845626e-03
1.675815e-02 5.751688e-17 2.167842e-02
0.000000e+00 -2.442337e-13 4.066212e-02
0.000000e+00 -6.235394e-14 -8.311194e-03
-3.341822e-03 -8.441328e-14 -6.353645e-03
-5.346231e-03 -9.818498e-14 -4.155621e-03
-7.209770e-03 -9.054886e-14 -3.321986e-03
-9.120908e-03 -1.430656e-13 -2.602764e-03
-1.127417e-02 -4.462322e-14 -2.250750e-03