# vtk DataFile Version 3.0
vtk output
ASCII
DATASET UNSTRUCTURED_GRID
POINTS 11767 float
0.000000e+00 0.000000e+00 0.000000e+00
1.460000e-02 0.000000e+00 0.000000e+00
2.920000e-02 0.000000e+00 0.000000e+00
4.380000e-02 0.000000e+00 0.000000e+00
5.840000e-02 0.000000e+00 0.000000e+00
7.300000e-02 0.000000e+00 0.000000e+00
8.760000e-02 0.000000e+00 0.000000e+00
1.022000e-01 0.000000e+00 0.000000e+00
1.168000e-01 0.000000e+00 0.000000e+00
1.314000e-01 0.000000e+00 0.000000e+00
1.460000e-01 0.000000e+00 0.000000e+00
1.606000e-01 0.000000e+00 0.000000e+00
1.752000e-01 0.000000e+00 0.000000e+00
1.898000e-01 0.000000e+00 0.000000e+00
2.044000e-01 0.000000e+00 0.000000e+00
2.190000e-01 0.000000e+00 0.000000e+00
2.336000e-01 0.000000e+00 0.000000e+00
2.482000e-01 0.000000e+00 0.000000e+00
2.628000e-01 0.000000e+00 0.000000e+00
2.774000e-01 0.000000e+00 0.000000e+00
2.920000e-01 0.000000e+00 0.000000e+00
3.066000e-01 0.000000e+00 0.000000e+00
3.212000e-01 0.000000e+00 0.000000e+00
3.358000e-01 0.000000e+00 0.000000e+00
3.504000e-01 0.000000e+00 0.000000e+00
3.650000e-01 0.000000e+00 0.000000e+00
3.796000e-01 0.000000e+00 0.000000e+00
3.942000e-01 0.000000e+00 0.000000e+00
4.088000e-01 0.000000e+00 0.000000e+00
4.234000e-01 0.000000e+00 0.000000e+00
4.380000e-01 0.000000e+00 0.000000e+00
4.526000e-01 0.000000e+00 0.000000e+00
4.672000e-01 0.000000e+00 0.000000e+00
4.818000e-01 0.000000e+00 0.000000e+00
4.964000e-01 0.000000e+00 0.000000e+00
5.110000e-01 0.000000e+00 0.000000e+00
5.256000e-01 0.000000e+00 0.000000e+00
5.402000e-01 0.000000e+00 0.000000e+00
5.548000e-01 0.000000e+00 0.000000e+00
5.694000e-01 0.000000e+00 0.000000e+00
5.840000e-01 0.000000e+00 0.000000e+00
0.000000e+00 1.460000e-02 0.000000e+00
1.460000e-02 1.460000e-02 0.000000e+00
2.920000e-02 1.460000e-02 0.000000e+00
4.380000e-02 1.460000e-02 0.000000e+00
5.840000e-02 1.460000e-02 0.000000e+00
7.300000e-02 1.460000e-02 0.000000e+00
8.760000e-02 1.460000e-02 0.000000e+00
1.022000e-01 1.460000e-02 0.000000e+00
1.168000e-01 1.460000e-02 0.000000e+00
1.314000e-01 1.460000e-02 0.000000e+00
1.460000e-01 1.460000e-02 0.000000e+00
1.606000e-01 1.460000e-02 0.000000e+00
1.752000e-01 1.460000e-02 0.000000e+00
1.898000e-01 1.460000e-02 0.000000e+00
2.044000e-01 1.460000e-02 0.000000e+00
2.190000e-01 1.460000e-02 0.000000e+00
2.336000e-01 1.460000e-02 0.000000e+00
2.482000e-01 1.460000e-02 0.000000e+00
2.628000e-01 1.460000e-02 0.000000e+00
2.774000e-01 1.460000e-02 0.000000e+00
2.920000e-01 1.460000e-02 0.000000e+00
3.066000e-01 1.460000e-02 0.000000e+00
3.212000e-01 1.460000e-02 0.000000e+00
3.358000e-01 1.460000e-02 0.000000e+00
3.504000e-01 1.460000e-02 0.000000e+00
3.650000e-01 1.460000e-02 0.000000e+00
3.796000e-01 1.460000e-02 0.000000e+00
3.942000e-01 1.460000e-02 0.000000e+00
4.088000e-01 1.460000e-02 0.000000e+00
4.234000e-01 1.460000e-02 0.000000e+00
4.380000e-01 1.460000e-02 0.000000e+00
4.526000e-01 1.460000e-02 0.000000e+00
4.672000e-01 1.460000e-02 0.000000e+00
4.818000e-01 1.460000e-02 0.000000e+00
4.964000e-01 1.460000e-02 0.000000e+00
5.110000e-01 1.460000e-02 0.000000e+00
5.256000e-01 1.460000e-02 0.000000e+00
5.402000e-01 1.460000e-02 0.000000e+00
5.548000e-01 1.460000e-02 0.000000e+00
5.694000e-01 1.460000e-02 0.000000e+00
5.840000e-01 1.460000e-02 0.000000e+00
0.000000e+00 2.920000e-02 0.000000e+00
1.460000e-02 2.920000e-02 0.000000e+00
2.920000e-02 2.920000e-02 0.000000e+00
4.380000e-02 2.920000e-02 0.000000e+00
5.840000e-02 2.920000e-02 0.000000e+00
7.300000e-02 2.920000e-02 0.000000e+00
8.760000e-02 2.920000e-02 0.000000e+00
1.022000e-01 2.920000e-02 0.000000e+00
1.168000e-01 2.920000e-02 0.000000e+00
1.314000e-01 2.920000e-02 0.000000e+00
1.460000e-01 2.920000e-02 0.000000e+00
1.606000e-01 2.920000e-02 0.000000e+00
1.752000e-01 2.920000e-02 0.000000e+00
1.898000e-01 2.920000e-02 0.000000e+00
2.044000e-01 2.920000e-02 0.000000e+00
2.190000e-01 2.920000e-02 0.000000e+00
2.336000e-01 2.920000e-02 0.000000e+00
2.482000e-01 2.920000e-02 0.000000e+00
2.628000e-01 2.920000e-02 0.000000e+00
2.774000e-01 2.920000e-02 0.000000e+00
2.920000e-01 2.920000e-02 0.000000e+00
3.066000e-01 2.920000e-02 0.000000e+00
3.212000e-01 2.920000e-02 0.000000e+00
3.358000e-01 2.920000e-02 0.000000e+00
3.504000e-01 2.920000e-02 0.000000e+00
3.650000e-01 2.920000e-02 0.000000e+00
3.796000e-01 2.920000e-02 0.000000e+00
3.942000e-01 2.920000e-02 0.000000e+00
4.088000e-01 2.920000e-02 0.000000e+00
4.234000e-01 2.920000e-02 0.000000e+00
4.380000e-01 2.920000e-02 0.000000e+00
4.526000e-01 2.920000e-02 0.000000e+00
4.672000e-01 2.920000e-02 0.000000e+00
4.818000e-01 2.920000e-02 0.000000e+00
4.964000e-01 2.920000e-02 0.000000e+00
5.110000e-01 2.920000e-02 0.000000e+00
5.256000e-01 2.920000e-02 0.000000e+00
5.402000e-01 2.920000e-02 0.000000e+00
5.548000e-01 2.920000e-02 0.000000e+00
5.694000e-01 2.920000e-02 0.000000e+00
5.840000e-01 2.920000e-02 0.000000e+00
0.000000e+00 4.380000e-02 0.000000e+00
1.460000e-02 4.380000e-02 0.000000e+00
2.920000e-02 4.380000e-02 0.000000e+00
4.380000e-02 4.380000e-02 0.000000e+00
5.840000e-02 4.380000e-02 0.000000e+00
7.300000e-02 4.380000e-02 0.000000e+00
8.760000e-02 4.380000e-02 0.000000e+00
1.022000e-01 4.380000e-02 0.000000e+00
1.168000e-01 4.380000e-02 0.000000e+00
1.314000e-01 4.380000e-02 0.000000e+00
1.460000e-01 4.380000e-02 0.000000e+00
1.606000e-01 4.380000e-02 0.000000e+00
1.752000e-01 4.380000e-02 0.000000e+00
1.898000e-01 4.380000e-02 0.000000e+00
2.044000e-01 4.380000e-02 0.000000e+00
2.190000e-01 4.380000e-02 0.000000e+00
2.336000e-01 4.380000e-02 0.000000e+00
2.482000e-01 4.380000e-02 0.000000e+00
2.628000e-01 4.380000e-02 0.000000e+00
2.774000e-01 4.380000e-02 0.000000e+00
2.920000e-01 4.380000e-02 0.000000e+00
3.066000e-01 4.380000e-02 0.000000e+00
3.212000e-01 4.380000e-02 0.000000e+00
3.358000e-01 4.380000e-02 0.000000e+00
3.504000e-01 4.380000e-02 0.000000e+00
3.650000e-01 4.380000e-02 0.000000e+00
3.796000e-01 4.380000e-02 0.000000e+00
3.942000e-01 4.380000e-02 0.000000e+00
4.088000e-01 4.380000e-02 0.000000e+00
4.234000e-01 4.380000e-02 0.000000e+00
4.380000e-01 4.380000e-02 0.000000e+00
4.526000e-01 4.380000e-02 0.000000e+00
4.672000e-01 4.380000e-02 0.000000e+00
4.818000e-01 4.380000e-02 0.000000e+00
4.964000e-01 4.380000e-02 0.000000e+00
5.110000e-01 4.380000e-02 0.000000e+00
5.256000e-01 4.380000e-02 0.000000e+00
5.402000e-01 4.380000e-02 0.000000e+00
5.548000e-01 4.380000e-02 0.000000e+00
5.694000e-01 4.380000e-02 0.000000e+00
5.840000e-01 4.380000e-02 0.000000e+00
0.000000e+00 5.840000e-02 0.000000e+00
1.460000e-02 5.840000e-02 0.000000e+00
2.920000e-02 5.840000e-02 0.000000e+00
4.380000e-02 5.840000e-02 0.000000e+00
5.840000e-02 5.840000e-02 0.000000e+00
7.300000e-02 5.840000e-02 0.000000e+00
8.760000e-02 5.840000e-02 0.000000e+00
1.022000e-01 5.840000e-02 0.000000e+00
1.168000e-01 5.840000e-02 0.000000e+00
1.314000e-01 5.840000e-02 0.000000e+00
1.460000e-01 5.840000e-02 0.000000e+00
1.606000e-01 5.840000e-02 0.000000e+00
1.752000e-01 5.840000e-02 0.000000e+00
1.898000e-01 5.840000e-02 0.000000e+00
2.044000e-01 5.840000e-02 0.000000e+00
2.190000e-01 5.840000e-02 0.000000e+00
2.336000e-01 5.840000e-02 0.000000e+00
2.482000e-01 5.840000e-02 0.000000e+00
2.628000e-01 5.840000e-02 0.000000e+00
2.774000e-01 5.840000e-02 0.000000e+00
2.920000e-01 5.840000e-02 0.000000e+00
3.066000e-01 5.840000e-02 0.000000e+00
3.212000e-01 5.840000e-02 0.000000e+00
3.358000e-01 5.840000e-02 0.000000e+00
3.504000e-01 5.840000e-02 0.000000e+00
3.650000e-01 5.840000e-02 0.000000e+00
3.796000e-01 5.840000e-02 0.000000e+00
3.942000e-01 5.840000e-02 0.000000e+00
4.088000e-01 5.840000e-02 0.000000e+00
4.234000e-01 5.840000e-02 0.000000e+00
4.380000e-01 5.840000e-02 0.000000e+00
4.526000e-01 5.840000e-02 0.000000e+00
4.672000e-01 5.840000e-02 0.000000e+00
4.818000e-01 5.840000e-02 0.000000e+00
4.964000e-01 5.840000e-02 0.000000e+00
5.110000e-01 5.840000e-02 0.000000e+00
5.256000e-01 5.840000e-02 0.000000e+00
5.402000e-01 5.840000e-02 0.000000e+00
5.548000e-01 5.840000e-02 0.000000e+00
5.694000e-01 5.840000e-02 0.000000e+00
5.840000e-01 5.840000e-02 0.000000e+00
0.000000e+00 7.300000e-02 0.000000e+00
1.460000e-02 7.300000e-02 0.000000e+00
2.920000e-02 7.300000e-02 0.000000e+00
4.380000e-02 7.300000e-02 0.000000e+00
5.840000e-02 7.300000e-02 0.000000e+00
7.300000e-02 7.300000e-02 0.000000e+00
8.760000e-02 7.300000e-02 0.000000e+00
1.022000e-01 7.300000e-02 0.000000e+00
1.168000e-01 7.300000e-02 0.000000e+00
1.314000e-01 7.300000e-02 0.000000e+00
1.460000e-01 7.300000e-02 0.000000e+00
1.606000e-01 7.300000e-02 0.000000e+00
1.752000e-01 7.300000e-02 0.000000e+00
1.898000e-01 7.300000e-02 0.000000e+00
2.044000e-01 7.300000e-02 0.000000e+00
2.190000e-01 7.300000e-02 0.000000e+00
2.336000e-01 7.300000e-02 0.000000e+00
2.482000e-01 7.300000e-02 0.000000e+00
2.628000e-01 7.300000e-02 0.000000e+00
2.774000e-01 7.300000e-02 0.000000e+00
2.920000e-01 7.300000e-02 0.000000e+00
3.066000e-01 7.300000e-02 0.000000e+00
3.212000e-01 7.300000e-02 0.000000e+00
3.358000e-01 7.300000e-02 0.000000e+00
3.504000e-01 7.300000e-02 0.000000e+00
3.650000e-01 7.300000e-02 0.000000e+00
3.796000e-01 7.300000e-02 0.000000e+00
3.942000e-01 7.300000e-02 0.000000e+00
4.088000e-01 7.300000e-02 0.000000e+00
4.234000e-01 7.300000e-02 0.000000e+00
4.380000e-01 7.300000e-02 0.000000e+00
4.526000e-01 7.300000e-02 0.000000e+00
4.672000e-01 7.300000e-02 0.000000e+00
4.818000e-01 7.300000e-02 0.000000e+00
4.964000e-01 7.300000e-02 0.000000e+00
5.110000e-01 7.300000e-02 0.000000e+00
5.256000e-01 7.300000e-02 0.000000e+00
5.402000e-01 7.300000e-02 0.000000e+00
5.548000e-01 7.300000e-02 0.000000e+00
5.694000e-01 7.300000e-02 0.000000e+00
5.840000e-01 7.300000e-02 0.000000e+00
0.000000e+00 8.760000e-02 0.000000e+00
1.460000e-02 8.760000e-02 0.000000e+00
2.920000e-02 8.760000e-02 0.000000e+00
4.380000e-02 8.760000e-02 0.000000e+00
5.840000e-02 8.760000e-02 0.000000e+00
7.300000e-02 8.760000e-02 0.000000e+00
8.760000e-02 8.760000e-02 0.000000e+00
1.022000e-01 8.760000e-02 0.000000e+00
[...]
POINT_DATA 11767
VECTORS Velocity float
0.000000e+00 0.000000e+00 0.000000e+00
2.534631e-02 0.000000e+00 0.000000e+00
4.348732e-02 0.000000e+00 0.000000e+00
5.878959e-02 0.000000e+00 0.000000e+00
7.204318e-02 0.000000e+00 0.000000e+00
8.390065e-02 0.000000e+00 0.000000e+00
9.425745e-02 0.000000e+00 0.000000e+00
1.031342e-01 0.000000e+00 0.000000e+00
1.103347e-01 0.000000e+00 0.000000e+00
1.158671e-01 0.000000e+00 0.000000e+00
1.197829e-01 0.000000e+00 0.000000e+00
1.222778e-01 0.000000e+00 0.000000e+00
1.234786e-01 0.000000e+00 0.000000e+00
1.234895e-01 0.000000e+00 0.000000e+00
1.223746e-01 0.000000e+00 0.000000e+00
1.203240e-01 0.000000e+00 0.000000e+00
1.176097e-01 0.000000e+00 0.000000e+00
1.145202e-01 0.000000e+00 0.000000e+00
1.113008e-01 0.000000e+00 0.000000e+00
1.081678e-01 0.000000e+00 0.000000e+00
1.052352e-01 0.000000e+00 0.000000e+00
1.025117e-01 0.000000e+00 0.000000e+00
9.993620e-02 0.000000e+00 0.000000e+00
9.752089e-02 0.000000e+00 0.000000e+00
9.525971e-02 0.000000e+00 0.000000e+00
9.321098e-02 0.000000e+00 0.000000e+00
9.143207e-02 0.000000e+00 0.000000e+00
9.002275e-02 0.000000e+00 0.000000e+00
8.898246e-02 0.000000e+00 0.000000e+00
8.838306e-02 0.000000e+00 0.000000e+00
8.813834e-02 0.000000e+00 0.000000e+00
8.816878e-02 0.000000e+00 0.000000e+00
8.822585e-02 0.000000e+00 0.000000e+00
8.791160e-02 0.000000e+00 0.000000e+00
8.691530e-02 0.000000e+00 0.000000e+00
8.473486e-02 0.000000e+00 0.000000e+00
8.045841e-02 0.000000e+00 0.000000e+00
7.474976e-02 0.000000e+00 0.000000e+00
6.197836e-02 0.000000e+00 0.000000e+00
4.665141e-02 0.000000e+00 0.000000e+00
0.000000e+00 0.000000e+00 0.000000e+00
0.000000e+00 -9.080363e-14 0.000000e+00
2.534631e-02 7.908055e-14 0.000000e+00
4.348732e-02 2.737205e-13 0.000000e+00
5.878959e-02 -5.691434e-14 0.000000e+00
7.204318e-02 2.508931e-13 0.000000e+00
8.390065e-02 2.165283e-13 0.000000e+00
9.425745e-02 -4.393035e-13 0.000000e+00
1.031342e-01 1.810640e-13 0.000000e+00
1.103347e-01 -6.519002e-13 0.000000e+00
1.158671e-01 -1.336238e-13 0.000000e+00
1.197829e-01 -4.834451e-13 0.000000e+00
1.222778e-01 -1.495763e-13 0.000000e+00
1.234786e-01 -6.771878e-14 0.000000e+00
1.234895e-01 -3.044524e-14 0.000000e+00
1.223746e-01 -1.553138e-13 0.000000e+00
1.203240e-01 -3.536143e-13 0.000000e+00
1.176097e-01 8.779561e-14 0.000000e+00
1.145202e-01 -6.674302e-13 0.000000e+00
1.113008e-01 4.844037e-13 0.000000e+00
1.081678e-01 -7.296944e-13 0.000000e+00
1.052352e-01 5.710788e-13 0.000000e+00
1.025117e-01 -7.075780e-13 0.000000e+00
9.993620e-02 -5.784614e-14 0.000000e+00
9.752089e-02 9.391330e-14 0.000000e+00
9.525971e-02 -2.795760e-13 0.000000e+00
9.321098e-02 1.140738e-13 0.000000e+00
9.143207e-02 -4.436916e-15 0.000000e+00
9.002275e-02 -3.272348e-13 0.000000e+00
8.898246e-02 3.533977e-13 0.000000e+00
8.838306e-02 -4.221964e-13 0.000000e+00
8.813834e-02 2.655035e-13 0.000000e+00
8.816878e-02 -4.324692e-13 0.000000e+00
8.822585e-02 3.909497e-13 0.000000e+00
8.791160e-02 -1.972084e-13 0.000000e+00
8.691530e-02 2.427275e-14 0.000000e+00
8.473486e-02 -4.998725e-14 0.000000e+00
8.045841e-02 -4.000552e-13 0.000000e+00
7.474976e-02 4.893297e-13 0.000000e+00
6.197836e-02 -1.978275e-13 0.000000e+00
4.665141e-02 4.080340e-13 0.000000e+00
0.000000e+00 -5.344649e-14 0.000000e+00
0.000000e+00 -6.023564e-14 0.000000e+00
2.534631e-02 5.497677e-13 0.000000e+00
4.348732e-02 8.352312e-13 0.000000e+00
5.878959e-02 -5.791525e-15 0.000000e+00
7.204318e-02 7.203295e-13 0.000000e+00
8.390065e-02 3.013311e-13 0.000000e+00
9.425745e-02 -3.433195e-14 0.000000e+00
1.031342e-01 -6.303302e-13 0.000000e+00
1.103347e-01 -3.886910e-13 0.000000e+00
1.158671e-01 -7.383159e-13 0.000000e+00
1.197829e-01 -8.712604e-14 0.000000e+00
1.222778e-01 -6.796045e-13 0.000000e+00
1.234786e-01 -1.853133e-13 0.000000e+00
1.234895e-01 2.636929e-13 0.000000e+00
1.223746e-01 -5.681768e-13 0.000000e+00
1.203240e-01 -4.547037e-13 0.000000e+00
1.176097e-01 -4.536272e-13 0.000000e+00
1.145202e-01 -4.403673e-13 0.000000e+00
1.113008e-01 5.415102e-13 0.000000e+00
1.081678e-01 -3.172655e-13 0.000000e+00
1.052352e-01 -1.536164e-13 0.000000e+00
1.025117e-01 -3.131438e-13 0.000000e+00
9.993620e-02 7.433941e-14 0.000000e+00
9.752089e-02 -5.090773e-13 0.000000e+00
9.525971e-02 -9.771963e-14 0.000000e+00
9.321098e-02 -4.244843e-13 0.000000e+00
9.143207e-02 -5.223400e-13 0.000000e+00
9.002275e-02 5.257418e-13 0.000000e+00
8.898246e-02 -3.828225e-14 0.000000e+00
8.838306e-02 3.373368e-13 0.000000e+00
8.813834e-02 -3.855178e-13 0.000000e+00
8.816878e-02 -1.350534e-13 0.000000e+00
8.822585e-02 -2.834696e-13 0.000000e+00
8.791160e-02 -1.925325e-13 0.000000e+00
8.691530e-02 -1.543135e-13 0.000000e+00
8.473486e-02 -2.703081e-13 0.000000e+00
8.045841e-02 2.115101e-13 0.000000e+00
7.474976e-02 1.125987e-13 0.000000e+00
6.197836e-02 7.782109e-13 0.000000e+00
4.665141e-02 3.414278e-13 0.000000e+00
0.000000e+00 1.265380e-12 0.000000e+00
0.000000e+00 -1.332584e-13 0.000000e+00
2.534631e-02 8.758878e-13 0.000000e+00
4.348732e-02 1.245136e-13 0.000000e+00
5.878959e-02 8.937563e-13 0.000000e+00
7.204318e-02 9.325482e-14 0.000000e+00
8.390065e-02 3.415960e-13 0.000000e+00
9.425745e-02 1.175031e-13 0.000000e+00
1.031342e-01 -6.004392e-14 0.000000e+00
1.103347e-01 -6.356371e-13 0.000000e+00
1.158671e-01 -1.352213e-14 0.000000e+00
1.197829e-01 -5.721151e-13 0.000000e+00
1.222778e-01 -6.662230e-13 0.000000e+00
1.234786e-01 -2.774107e-13 0.000000e+00
1.234895e-01 4.045540e-13 0.000000e+00
1.223746e-01 -5.185354e-13 0.000000e+00
1.203240e-01 -3.788260e-13 0.000000e+00
1.176097e-01 -4.077813e-13 0.000000e+00
1.145202e-01 -2.444634e-13 0.000000e+00
1.113008e-01 1.319417e-14 0.000000e+00
1.081678e-01 -1.705591e-13 0.000000e+00
1.052352e-01 -1.495924e-13 0.000000e+00
1.025117e-01 -4.719417e-14 0.000000e+00
9.993620e-02 -4.063864e-13 0.000000e+00
9.752089e-02 7.450918e-13 0.000000e+00
9.525971e-02 -4.695250e-13 0.000000e+00
9.321098e-02 -1.079020e-13 0.000000e+00
9.143207e-02 -1.652327e-13 0.000000e+00
9.002275e-02 4.155871e-13 0.000000e+00
8.898246e-02 -2.426160e-13 0.000000e+00
8.838306e-02 4.080961e-13 0.000000e+00
8.813834e-02 -7.890708e-13 0.000000e+00
8.816878e-02 -7.951062e-14 0.000000e+00
8.822585e-02 1.385369e-13 0.000000e+00
8.791160e-02 1.479377e-13 0.000000e+00
8.691530e-02 1.825933e-13 0.000000e+00
8.473486e-02 1.066239e-13 0.000000e+00
8.045841e-02 7.771286e-14 0.000000e+00
7.474976e-02 4.623230e-14 0.000000e+00
6.197836e-02 1.932827e-13 0.000000e+00
4.665141e-02 7.247530e-13 0.000000e+00
0.000000e+00 3.865002e-13 0.000000e+00
0.000000e+00 6.604322e-13 0.000000e+00
2.534631e-02 -5.359357e-13 0.000000e+00
4.348732e-02 2.109045e-13 0.000000e+00
5.878959e-02 4.141599e-14 0.000000e+00
7.204318e-02 2.970358e-13 0.000000e+00
8.390065e-02 -1.048931e-13 0.000000e+00
9.425745e-02 4.639352e-14 0.000000e+00
1.031342e-01 -1.337278e-13 0.000000e+00
1.103347e-01 1.284791e-13 0.000000e+00
1.158671e-01 -4.733472e-13 0.000000e+00
1.197829e-01 -1.841268e-13 0.000000e+00
1.222778e-01 -8.740391e-13 0.000000e+00
1.234786e-01 -2.392792e-13 0.000000e+00
1.234895e-01 -3.137802e-13 0.000000e+00
1.223746e-01 -9.506115e-14 0.000000e+00
1.203240e-01 -6.018088e-13 0.000000e+00
1.176097e-01 1.184011e-13 0.000000e+00
1.145202e-01 -5.567679e-13 0.000000e+00
1.113008e-01 4.196230e-15 0.000000e+00
1.081678e-01 -7.922777e-13 0.000000e+00
1.052352e-01 2.588005e-13 0.000000e+00
1.025117e-01 -2.953058e-13 0.000000e+00
9.993620e-02 -9.389728e-15 0.000000e+00
9.752089e-02 -1.202172e-14 0.000000e+00
9.525971e-02 -6.450758e-13 0.000000e+00
9.321098e-02 -4.817561e-14 0.000000e+00
9.143207e-02 -3.143749e-13 0.000000e+00
9.002275e-02 9.167123e-14 0.000000e+00
8.898246e-02 -6.369132e-13 0.000000e+00
8.838306e-02 -2.862834e-13 0.000000e+00
8.813834e-02 -1.355904e-13 0.000000e+00
8.816878e-02 -4.588415e-13 0.000000e+00
8.822585e-02 -5.707725e-14 0.000000e+00
8.791160e-02 -4.493221e-14 0.000000e+00
8.691530e-02 1.341701e-13 0.000000e+00
8.473486e-02 2.533166e-13 0.000000e+00
8.045841e-02 3.673474e-13 0.000000e+00
7.474976e-02 1.664235e-13 0.000000e+00
6.197836e-02 -4.561752e-13 0.000000e+00
4.665141e-02 1.017529e-12 0.000000e+00
0.000000e+00 3.176145e-13 0.000000e+00
0.000000e+00 -2.270408e-13 0.000000e+00
2.534631e-02 -5.537845e-14 0.000000e+00
4.348732e-02 3.831105e-13 0.000000e+00
5.878959e-02 -1.178111e-15 0.000000e+00
7.204318e-02 -2.653246e-13 0.000000e+00
8.390065e-02 5.644380e-13 0.000000e+00
9.425745e-02 -2.746936e-13 0.000000e+00
1.031342e-01 -1.478689e-13 0.000000e+00
1.103347e-01 2.695897e-13 0.000000e+00
1.158671e-01 -3.341810e-13 0.000000e+00
1.197829e-01 2.835206e-13 0.000000e+00
1.222778e-01 -5.940786e-13 0.000000e+00
1.234786e-01 -5.874250e-14 0.000000e+00
1.234895e-01 -7.884269e-14 0.000000e+00
1.223746e-01 -2.786547e-13 0.000000e+00
1.203240e-01 -8.636465e-14 0.000000e+00
1.176097e-01 -4.378911e-13 0.000000e+00
1.145202e-01 -4.200770e-13 0.000000e+00
1.113008e-01 3.828373e-13 0.000000e+00
1.081678e-01 -4.317248e-13 0.000000e+00
1.052352e-01 -9.098625e-14 0.000000e+00
1.025117e-01 -2.606462e-13 0.000000e+00
9.993620e-02 6.159581e-14 0.000000e+00
9.752089e-02 6.005292e-14 0.000000e+00
9.525971e-02 -2.506275e-13 0.000000e+00
9.321098e-02 -1.596275e-14 0.000000e+00
9.143207e-02 -4.934561e-13 0.000000e+00
9.002275e-02 4.283464e-13 0.000000e+00
8.898246e-02 4.654904e-14 0.000000e+00
8.838306e-02 -3.749482e-13 0.000000e+00
8.813834e-02 3.504673e-13 0.000000e+00
8.816878e-02 -1.727787e-13 0.000000e+00
8.822585e-02 1.372964e-13 0.000000e+00
8.791160e-02 -5.732920e-13 0.000000e+00
8.691530e-02 5.994544e-13 0.000000e+00
8.473486e-02 -2.172023e-13 0.000000e+00
8.045841e-02 6.529030e-13 0.000000e+00
7.474976e-02 -4.106250e-13 0.000000e+00
6.197836e-02 1.957393e-13 0.000000e+00
4.665141e-02 -3.137223e-13 0.000000e+00
0.000000e+00 8.239161e-13 0.000000e+00
0.000000e+00 0.000000e+00 0.000000e+00
2.534631e-02 0.000000e+00 0.000000e+00
4.348732e-02 0.000000e+00 0.000000e+00
5.878959e-02 0.000000e+00 0.000000e+00
7.204318e-02 0.000000e+00 0.000000e+00
8.390065e-02 0.000000e+00 0.000000e+00
9.425745e-02 0.000000e+00 0.000000e+00
1.031342e-01 0.000000e+00 0.000000e+00
1.103347e-01 0.000000e+00 0.000000e+00
1.158671e-01 0.000000e+00 0.000000e+00
1.197829e-01 0.000000e+00 0.000000e+00
1.222778e-01 0.000000e+00 0.000000e+00
1.234786e-01 0.000000e+00 0.000000e+00
1.234895e-01 0.000000e+00 0.000000e+00
1.223746e-01 0.000000e+00 0.000000e+00
1.203240e-01 0.000000e+00 0.000000e+00
1.176097e-01 0.000000e+00 0.000000e+00
1.145202e-01 0.000000e+00 0.000000e+00
1.113008e-01 0.000000e+00 0.000000e+00
1.081678e-01 0.000000e+00 0.000000e+00
1.052352e-01 0.000000e+00 0.000000e+00
1.025117e-01 0.000000e+00 0.000000e+00
9.993620e-02 0.000000e+00 0.000000e+00
9.752089e-02 0.000000e+00 0.000000e+00
9.525971e-02 0.000000e+00 0.000000e+00
9.321098e-02 0.000000e+00 0.000000e+00
9.143207e-02 0.000000e+00 0.000000e+00
9.002275e-02 0.000000e+00 0.000000e+00
8.898246e-02 0.000000e+00 0.000000e+00
8.838306e-02 0.000000e+00 0.000000e+00
8.813834e-02 0.000000e+00 0.000000e+00
8.816878e-02 0.000000e+00 0.000000e+00
8.822585e-02 0.000000e+00 0.000000e+00
8.791160e-02 0.000000e+00 0.000000e+00
8.691530e-02 0.000000e+00 0.000000e+00
8.473486e-02 0.000000e+00 0.000000e+00
8.045841e-02 0.000000e+00 0.000000e+00
7.474976e-02 0.000000e+00 0.000000e+00
6.197836e-02 0.000000e+00 0.000000e+00
4.665141e-02 0.000000e+00 0.000000e+00
0.000000e+00 0.000000e+00 0.000000e+00
0.000000e+00 0.000000e+00 -2.376616e-02
1.030377e-02 0.000000e+00 -2.076406e-02
2.243480e-02 0.000000e+00 -1.719862e-02
3.410792e-02 0.000000e+00 -1.575233e-02
4.525499e-02 0.000000e+00 -1.433389e-02
5.541806e-02 0.000000e+00 -1.305590e-02
6.436640e-02 0.000000e+00 -1.159133e-02
7.172143e-02 0.000000e+00 -9.966179e-03
7.724716e-02 0.000000e+00 -8.205914e-03
8.089441e-02 0.000000e+00 -6.494811e-03
8.281316e-02 0.000000e+00 -4.945094e-03
8.326870e-02 0.000000e+00 -3.612907e-03
8.254215e-02 0.000000e+00 -2.434774e-03
8.082933e-02 0.000000e+00 -1.350637e-03
7.823609e-02 0.000000e+00 -3.600558e-04
7.481621e-02 0.000000e+00 4.451579e-04
7.067280e-02 0.000000e+00 1.012521e-03
6.594072e-02 0.000000e+00 1.359500e-03
6.074034e-02 0.000000e+00 1.496765e-03
5.525270e-02 0.000000e+00 1.458220e-03
4.966539e-02 0.000000e+00 1.290198e-03
4.429131e-02 0.000000e+00 1.060158e-03
3.935167e-02 0.000000e+00 7.723314e-04
3.506259e-02 0.000000e+00 4.389202e-04
3.146680e-02 0.000000e+00 7.310035e-05
2.861862e-02 0.000000e+00 -3.164684e-04
2.643427e-02 0.000000e+00 -7.827522e-04
2.507243e-02 0.000000e+00 -1.304951e-03
2.452770e-02 0.000000e+00 -1.883771e-03
2.492780e-02 0.000000e+00 -2.442529e-03
2.602423e-02 0.000000e+00 -2.884164e-03
2.772526e-02 0.000000e+00 -3.137945e-03
2.956898e-02 0.000000e+00 -3.060393e-03
3.140771e-02 0.000000e+00 -2.583850e-03
3.266078e-02 0.000000e+00 -1.897344e-03
3.320254e-02 0.000000e+00 -1.059882e-04
3.226571e-02 0.000000e+00 7.660989e-04
2.976059e-02 0.000000e+00 5.580936e-03
2.414335e-02 0.000000e+00 7.076408e-03
1.567178e-02 0.000000e+00 2.151191e-02
0.000000e+00 0.000000e+00 3.999750e-02
0.000000e+00 -2.651532e-13 -2.376616e-02
1.030377e-02 -6.497210e-14 -2.076406e-02
2.243480e-02 -2.344677e-13 -1.719862e-02
3.410792e-02 1.544331e-13 -1.575233e-02
4.525499e-02 -5.921923e-14 -1.433389e-02
5.541806e-02 -1.659489e-13 -1.305590e-02
6.436640e-02 7.954789e-13 -1.159133e-02
7.172143e-02 5.322134e-13 -9.966179e-03
7.724716e-02 7.832485e-13 -8.205914e-03
8.089441e-02 7.618042e-13 -6.494811e-03
8.281316e-02 2.291559e-13 -4.945094e-03
8.326870e-02 -7.039846e-14 -3.612907e-03
8.254215e-02 -3.566703e-13 -2.434774e-03
8.082933e-02 -2.707309e-13 -1.350637e-03
7.823609e-02 -2.335806e-13 -3.600558e-04
7.481621e-02 -3.884508e-13 4.451579e-04
7.067280e-02 -3.279104e-13 1.012521e-03
6.594072e-02 1.927663e-13 1.359500e-03
6.074034e-02 -5.377727e-13 1.496765e-03
5.525270e-02 3.502581e-13 1.458220e-03
4.966539e-02 -6.656711e-13 1.290198e-03
4.429131e-02 3.515376e-13 1.060158e-03
3.935167e-02 -2.425563e-13 7.723314e-04
3.506259e-02 -3.732873e-13 4.389202e-04
3.146680e-02 -2.465055e-13 7.310034e-05
2.861862e-02 -4.054924e-13 -3.164684e-04
2.643427e-02 -7.409267e-13 -7.827522e-04
2.507243e-02 -1.373026e-13 -1.304951e-03
2.452770e-02 -7.157095e-13 -1.883771e-03
2.492780e-02 6.544960e-13 -2.442529e-03
2.602423e-02 2.070575e-13 -2.884164e-03
2.772526e-02 2.763649e-13 -3.137945e-03
2.956898e-02 8.681037e-14 -3.060393e-03
3.140771e-02 5.896090e-13 -2.583850e-03
3.266078e-02 2.947142e-13 -1.897344e-03
3.320254e-02 2.932162e-13 -1.059882e-04
3.226571e-02 5.778542e-14 7.660989e-04
2.976059e-02 1.347584e-13 5.580936e-03
2.414335e-02 -9.475136e-14 7.076408e-03
1.567178e-02 -1.214511e-13 2.151191e-02
0.000000e+00 1.362186e-13 3.999750e-02
0.000000e+00 4.578643e-14 -2.376616e-02
1.030377e-02 -1.931842e-13 -2.076406e-02
2.243480e-02 -5.723839e-13 -1.719862e-02
3.410792e-02 1.608893e-13 -1.575233e-02
4.525499e-02 -4.459342e-13 -1.433389e-02
5.541806e-02 1.688867e-13 -1.305590e-02
6.436640e-02 4.287423e-13 -1.159133e-02
7.172143e-02 1.021929e-12 -9.966179e-03
7.724716e-02 4.214958e-13 -8.205914e-03
8.089441e-02 1.174734e-12 -6.494811e-03
8.281316e-02 2.841199e-13 -4.945094e-03
8.326870e-02 9.989802e-14 -3.612907e-03
8.254215e-02 -5.199340e-13 -2.434774e-03
8.082933e-02 -2.860242e-13 -1.350637e-03
7.823609e-02 -4.421338e-13 -3.600558e-04
7.481621e-02 -7.056638e-14 4.451579e-04
7.067280e-02 -4.200331e-13 1.012521e-03
6.594072e-02 -8.634696e-15 1.359500e-03
6.074034e-02 -5.589448e-13 1.496765e-03
5.525270e-02 -2.148543e-13 1.458220e-03
4.966539e-02 -1.099376e-13 1.290198e-03
4.429131e-02 -3.153681e-13 1.060158e-03
3.935167e-02 -1.232829e-13 7.723314e-04
3.506259e-02 -7.729671e-14 4.389202e-04
3.146680e-02 6.687448e-14 7.310034e-05
2.861862e-02 -1.761795e-13 -3.164684e-04
2.643427e-02 -3.540153e-13 -7.827522e-04
2.507243e-02 -9.139464e-13 -1.304951e-03
2.452770e-02 -3.589767e-13 -1.883771e-03
2.492780e-02 -1.542010e-13 -2.442529e-03
2.602423e-02 -5.723559e-13 -2.884164e-03
2.772526e-02 4.935765e-13 -3.137945e-03
2.956898e-02 1.381243e-14 -3.060393e-03
3.140771e-02 4.557819e-13 -2.583850e-03
3.266078e-02 4.229413e-13 -1.897344e-03
3.320254e-02 7.638349e-13 -1.059882e-04
3.226571e-02 1.055953e-15 7.660989e-04
2.976059e-02 1.713841e-13 5.580936e-03
2.414335e-02 -3.186775e-13 7.076408e-03
1.567178e-02 1.846044e-14 2.151191e-02
0.000000e+00 2.513836e-13 3.999750e-02
0.000000e+00 -3.873312e-13 -2.376616e-02
1.030377e-02 -4.105696e-13 -2.076406e-02
2.243480e-02 -8.526450e-14 -1.719862e-02
3.410792e-02 -2.788451e-14 -1.575233e-02
4.525499e-02 1.010411e-13 -1.433389e-02
5.541806e-02 -2.561614e-13 -1.305590e-02
6.436640e-02 5.783940e-13 -1.159133e-02
7.172143e-02 2.065265e-13 -9.966179e-03
7.724716e-02 7.285237e-13 -8.205914e-03
8.089441e-02 5.334903e-13 -6.494811e-03
8.281316e-02 8.414763e-13 -4.945094e-03
8.326870e-02 -1.211794e-13 -3.612907e-03
8.254215e-02 -2.729773e-14 -2.434774e-03
8.082933e-02 -4.744745e-13 -1.350637e-03
7.823609e-02 -1.011994e-13 -3.600558e-04
7.481621e-02 -2.574474e-13 4.451579e-04
7.067280e-02 2.269022e-13 1.012521e-03
6.594072e-02 -1.267078e-13 1.359500e-03
6.074034e-02 1.102659e-13 1.496765e-03
5.525270e-02 4.174146e-14 1.458220e-03
4.966539e-02 -3.872034e-13 1.290198e-03
4.429131e-02 2.511063e-13 1.060158e-03
3.935167e-02 9.823527e-14 7.723314e-04
3.506259e-02 -3.017019e-13 4.389202e-04
3.146680e-02 6.487921e-13 7.310034e-05
2.861862e-02 1.126663e-13 -3.164684e-04
2.643427e-02 -4.005656e-14 -7.827522e-04
2.507243e-02 -2.134785e-13 -1.304951e-03
2.452770e-02 -5.975966e-13 -1.883771e-03
2.492780e-02 -3.178951e-13 -2.442529e-03
2.602423e-02 1.030249e-13 -2.884164e-03
2.772526e-02 -2.461896e-13 -3.137945e-03
2.956898e-02 1.820572e-13 -3.060393e-03
3.140771e-02 6.270251e-14 -2.583850e-03
3.266078e-02 2.986467e-13 -1.897344e-03
3.320254e-02 6.400119e-13 -1.059882e-04
3.226571e-02 -3.955912e-13 7.660989e-04
2.976059e-02 6.823628e-13 5.580936e-03
2.414335e-02 -5.730611e-14 7.076408e-03
1.567178e-02 1.220830e-13 2.151191e-02
0.000000e+00 -1.054752e-13 3.999750e-02
0.000000e+00 -6.474132e-14 -2.376616e-02
1.030377e-02 3.260635e-14 -2.076406e-02
2.243480e-02 1.870080e-14 -1.719862e-02
3.410792e-02 7.847703e-14 -1.575233e-02
4.525499e-02 -2.792737e-13 -1.433389e-02
5.541806e-02 5.100034e-14 -1.305590e-02
6.436640e-02 -1.634959e-13 -1.159133e-02
7.172143e-02 3.037658e-13 -9.966179e-03
7.724716e-02 1.560444e-13 -8.205914e-03
8.089441e-02 6.156802e-13 -6.494811e-03
8.281316e-02 3.087708e-13 -4.945094e-03
8.326870e-02 4.304479e-13 -3.612907e-03
8.254215e-02 3.691635e-13 -2.434774e-03
8.082933e-02 3.094790e-13 -1.350637e-03
7.823609e-02 2.853778e-13 -3.600558e-04
7.481621e-02 4.023573e-13 4.451579e-04
7.067280e-02 5.478630e-14 1.012521e-03
6.594072e-02 1.005111e-13 1.359500e-03
6.074034e-02 5.137149e-14 1.496765e-03
5.525270e-02 4.507808e-13 1.458220e-03
4.966539e-02 -6.013200e-13 1.290198e-03
4.429131e-02 -5.801275e-14 1.060158e-03
3.935167e-02 -2.096309e-13 7.723314e-04
3.506259e-02 1.087784e-13 4.389202e-04
3.146680e-02 3.835286e-13 7.310034e-05
2.861862e-02 2.866554e-13 -3.164684e-04
2.643427e-02 -3.222867e-13 -7.827522e-04
2.507243e-02 -3.514908e-13 -1.304951e-03
2.452770e-02 7.243384e-14 -1.883771e-03
2.492780e-02 1.391692e-14 -2.442529e-03
2.602423e-02 -5.681319e-13 -2.884164e-03
2.772526e-02 3.937265e-13 -3.137945e-03
2.956898e-02 -3.855033e-13 -3.060393e-03
3.140771e-02 3.266484e-13 -2.583850e-03
3.266078e-02 8.769924e-14 -1.897344e-03
3.320254e-02 1.676193e-13 -1.059882e-04
3.226571e-02 1.356263e-13 7.660989e-04
2.976059e-02 5.683439e-14 5.580936e-03
2.414335e-02 2.918099e-13 7.076408e-03
1.567178e-02 -3.065949e-13 2.151191e-02
0.000000e+00 5.883811e-13 3.999750e-02
0.000000e+00 -1.587729e-13 -2.376616e-02
1.030377e-02 -3.975009e-14 -2.076406e-02
2.243480e-02 -2.433271e-13 -1.719862e-02
3.410792e-02 -1.449996e-13 -1.575233e-02
4.525499e-02 2.568010e-13 -1.433389e-02
5.541806e-02 -1.978635e-13 -1.305590e-02
6.436640e-02 -1.683517e-14 -1.159133e-02
7.172143e-02 1.579578e-13 -9.966179e-03
7.724716e-02 -1.571299e-13 -8.205914e-03
8.089441e-02 2.881513e-13 -6.494811e-03