# vtk DataFile Version 3.0
vtk output
ASCII
DATASET UNSTRUCTURED_GRID
POINTS 11767 float
0.000000e+00 0.000000e+00 0.000000e+00
1.460000e-02 0.000000e+00 0.000000e+00
2.920000e-02 0.000000e+00 0.000000e+00
4.380000e-02 0.000000e+00 0.000000e+00
5.840000e-02 0.000000e+00 0.000000e+00
7.300000e-02 0.000000e+00 0.000000e+00
8.760000e-02 0.000000e+00 0.000000e+00
1.022000e-01 0.000000e+00 0.000000e+00
1.168000e-01 0.000000e+00 0.000000e+00
1.314000e-01 0.000000e+00 0.000000e+00
1.460000e-01 0.000000e+00 0.000000e+00
1.606000e-01 0.000000e+00 0.000000e+00
1.752000e-01 0.000000e+00 0.000000e+00
1.898000e-01 0.000000e+00 0.000000e+00
2.044000e-01 0.000000e+00 0.000000e+00
2.190000e-01 0.000000e+00 0.000000e+00
2.336000e-01 0.000000e+00 0.000000e+00
2.482000e-01 0.000000e+00 0.000000e+00
2.628000e-01 0.000000e+00 0.000000e+00
2.774000e-01 0.000000e+00 0.000000e+00
2.920000e-01 0.000000e+00 0.000000e+00
3.066000e-01 0.000000e+00 0.000000e+00
3.212000e-01 0.000000e+00 0.000000e+00
3.358000e-01 0.000000e+00 0.000000e+00
3.504000e-01 0.000000e+00 0.000000e+00
3.650000e-01 0.000000e+00 0.000000e+00
3.796000e-01 0.000000e+00 0.000000e+00
3.942000e-01 0.000000e+00 0.000000e+00
4.088000e-01 0.000000e+00 0.000000e+00
4.234000e-01 0.000000e+00 0.000000e+00
4.380000e-01 0.000000e+00 0.000000e+00
4.526000e-01 0.000000e+00 0.000000e+00
4.672000e-01 0.000000e+00 0.000000e+00
4.818000e-01 0.000000e+00 0.000000e+00
4.964000e-01 0.000000e+00 0.000000e+00
5.110000e-01 0.000000e+00 0.000000e+00
5.256000e-01 0.000000e+00 0.000000e+00
5.402000e-01 0.000000e+00 0.000000e+00
5.548000e-01 0.000000e+00 0.000000e+00
5.694000e-01 0.000000e+00 0.000000e+00
5.840000e-01 0.000000e+00 0.000000e+00
0.000000e+00 1.460000e-02 0.000000e+00
1.460000e-02 1.460000e-02 0.000000e+00
2.920000e-02 1.460000e-02 0.000000e+00
4.380000e-02 1.460000e-02 0.000000e+00
5.840000e-02 1.460000e-02 0.000000e+00
7.300000e-02 1.460000e-02 0.000000e+00
8.760000e-02 1.460000e-02 0.000000e+00
1.022000e-01 1.460000e-02 0.000000e+00
1.168000e-01 1.460000e-02 0.000000e+00
1.314000e-01 1.460000e-02 0.000000e+00
1.460000e-01 1.460000e-02 0.000000e+00
1.606000e-01 1.460000e-02 0.000000e+00
1.752000e-01 1.460000e-02 0.000000e+00
1.898000e-01 1.460000e-02 0.000000e+00
2.044000e-01 1.460000e-02 0.000000e+00
2.190000e-01 1.460000e-02 0.000000e+00
2.336000e-01 1.460000e-02 0.000000e+00
2.482000e-01 1.460000e-02 0.000000e+00
2.628000e-01 1.460000e-02 0.000000e+00
2.774000e-01 1.460000e-02 0.000000e+00
2.920000e-01 1.460000e-02 0.000000e+00
3.066000e-01 1.460000e-02 0.000000e+00
3.212000e-01 1.460000e-02 0.000000e+00
3.358000e-01 1.460000e-02 0.000000e+00
3.504000e-01 1.460000e-02 0.000000e+00
3.650000e-01 1.460000e-02 0.000000e+00
3.796000e-01 1.460000e-02 0.000000e+00
3.942000e-01 1.460000e-02 0.000000e+00
4.088000e-01 1.460000e-02 0.000000e+00
4.234000e-01 1.460000e-02 0.000000e+00
4.380000e-01 1.460000e-02 0.000000e+00
4.526000e-01 1.460000e-02 0.000000e+00
4.672000e-01 1.460000e-02 0.000000e+00
4.818000e-01 1.460000e-02 0.000000e+00
4.964000e-01 1.460000e-02 0.000000e+00
5.110000e-01 1.460000e-02 0.000000e+00
5.256000e-01 1.460000e-02 0.000000e+00
5.402000e-01 1.460000e-02 0.000000e+00
5.548000e-01 1.460000e-02 0.000000e+00
5.694000e-01 1.460000e-02 0.000000e+00
5.840000e-01 1.460000e-02 0.000000e+00
0.000000e+00 2.920000e-02 0.000000e+00
1.460000e-02 2.920000e-02 0.000000e+00
2.920000e-02 2.920000e-02 0.000000e+00
4.380000e-02 2.920000e-02 0.000000e+00
5.840000e-02 2.920000e-02 0.000000e+00
7.300000e-02 2.920000e-02 0.000000e+00
8.760000e-02 2.920000e-02 0.000000e+00
1.022000e-01 2.920000e-02 0.000000e+00
1.168000e-01 2.920000e-02 0.000000e+00
1.314000e-01 2.920000e-02 0.000000e+00
1.460000e-01 2.920000e-02 0.000000e+00
1.606000e-01 2.920000e-02 0.000000e+00
1.752000e-01 2.920000e-02 0.000000e+00
1.898000e-01 2.920000e-02 0.000000e+00
2.044000e-01 2.920000e-02 0.000000e+00
2.190000e-01 2.920000e-02 0.000000e+00
2.336000e-01 2.920000e-02 0.000000e+00
2.482000e-01 2.920000e-02 0.000000e+00
2.628000e-01 2.920000e-02 0.000000e+00
2.774000e-01 2.920000e-02 0.000000e+00
2.920000e-01 2.920000e-02 0.000000e+00
3.066000e-01 2.920000e-02 0.000000e+00
3.212000e-01 2.920000e-02 0.000000e+00
3.358000e-01 2.920000e-02 0.000000e+00
3.504000e-01 2.920000e-02 0.000000e+00
3.650000e-01 2.920000e-02 0.000000e+00
3.796000e-01 2.920000e-02 0.000000e+00
3.942000e-01 2.920000e-02 0.000000e+00
4.088000e-01 2.920000e-02 0.000000e+00
4.234000e-01 2.920000e-02 0.000000e+00
4.380000e-01 2.920000e-02 0.000000e+00
4.526000e-01 2.920000e-02 0.000000e+00
4.672000e-01 2.920000e-02 0.000000e+00
4.818000e-01 2.920000e-02 0.000000e+00
4.964000e-01 2.920000e-02 0.000000e+00
5.110000e-01 2.920000e-02 0.000000e+00
5.256000e-01 2.920000e-02 0.000000e+00
5.402000e-01 2.920000e-02 0.000000e+00
5.548000e-01 2.920000e-02 0.000000e+00
5.694000e-01 2.920000e-02 0.000000e+00
5.840000e-01 2.920000e-02 0.000000e+00
0.000000e+00 4.380000e-02 0.000000e+00
1.460000e-02 4.380000e-02 0.000000e+00
2.920000e-02 4.380000e-02 0.000000e+00
4.380000e-02 4.380000e-02 0.000000e+00
5.840000e-02 4.380000e-02 0.000000e+00
7.300000e-02 4.380000e-02 0.000000e+00
8.760000e-02 4.380000e-02 0.000000e+00
1.022000e-01 4.380000e-02 0.000000e+00
1.168000e-01 4.380000e-02 0.000000e+00
1.314000e-01 4.380000e-02 0.000000e+00
1.460000e-01 4.380000e-02 0.000000e+00
1.606000e-01 4.380000e-02 0.000000e+00
1.752000e-01 4.380000e-02 0.000000e+00
1.898000e-01 4.380000e-02 0.000000e+00
2.044000e-01 4.380000e-02 0.000000e+00
2.190000e-01 4.380000e-02 0.000000e+00
2.336000e-01 4.380000e-02 0.000000e+00
2.482000e-01 4.380000e-02 0.000000e+00
2.628000e-01 4.380000e-02 0.000000e+00
2.774000e-01 4.380000e-02 0.000000e+00
2.920000e-01 4.380000e-02 0.000000e+00
3.066000e-01 4.380000e-02 0.000000e+00
3.212000e-01 4.380000e-02 0.000000e+00
3.358000e-01 4.380000e-02 0.000000e+00
3.504000e-01 4.380000e-02 0.000000e+00
3.650000e-01 4.380000e-02 0.000000e+00
3.796000e-01 4.380000e-02 0.000000e+00
3.942000e-01 4.380000e-02 0.000000e+00
4.088000e-01 4.380000e-02 0.000000e+00
4.234000e-01 4.380000e-02 0.000000e+00
4.380000e-01 4.380000e-02 0.000000e+00
4.526000e-01 4.380000e-02 0.000000e+00
4.672000e-01 4.380000e-02 0.000000e+00
4.818000e-01 4.380000e-02 0.000000e+00
4.964000e-01 4.380000e-02 0.000000e+00
5.110000e-01 4.380000e-02 0.000000e+00
5.256000e-01 4.380000e-02 0.000000e+00
5.402000e-01 4.380000e-02 0.000000e+00
5.548000e-01 4.380000e-02 0.000000e+00
5.694000e-01 4.380000e-02 0.000000e+00
5.840000e-01 4.380000e-02 0.000000e+00
0.000000e+00 5.840000e-02 0.000000e+00
1.460000e-02 5.840000e-02 0.000000e+00
2.920000e-02 5.840000e-02 0.000000e+00
4.380000e-02 5.840000e-02 0.000000e+00
5.840000e-02 5.840000e-02 0.000000e+00
7.300000e-02 5.840000e-02 0.000000e+00
8.760000e-02 5.840000e-02 0.000000e+00
1.022000e-01 5.840000e-02 0.000000e+00
1.168000e-01 5.840000e-02 0.000000e+00
1.314000e-01 5.840000e-02 0.000000e+00
1.460000e-01 5.840000e-02 0.000000e+00
1.606000e-01 5.840000e-02 0.000000e+00
1.752000e-01 5.840000e-02 0.000000e+00
1.898000e-01 5.840000e-02 0.000000e+00
2.044000e-01 5.840000e-02 0.000000e+00
2.190000e-01 5.840000e-02 0.000000e+00
2.336000e-01 5.840000e-02 0.000000e+00
2.482000e-01 5.840000e-02 0.000000e+00
2.628000e-01 5.840000e-02 0.000000e+00
2.774000e-01 5.840000e-02 0.000000e+00
2.920000e-01 5.840000e-02 0.000000e+00
3.066000e-01 5.840000e-02 0.000000e+00
3.212000e-01 5.840000e-02 0.000000e+00
3.358000e-01 5.840000e-02 0.000000e+00
3.504000e-01 5.840000e-02 0.000000e+00
3.650000e-01 5.840000e-02 0.000000e+00
3.796000e-01 5.840000e-02 0.000000e+00
3.942000e-01 5.840000e-02 0.000000e+00
4.088000e-01 5.840000e-02 0.000000e+00
4.234000e-01 5.840000e-02 0.000000e+00
4.380000e-01 5.840000e-02 0.000000e+00
4.526000e-01 5.840000e-02 0.000000e+00
4.672000e-01 5.840000e-02 0.000000e+00
4.818000e-01 5.840000e-02 0.000000e+00
4.964000e-01 5.840000e-02 0.000000e+00
5.110000e-01 5.840000e-02 0.000000e+00
5.256000e-01 5.840000e-02 0.000000e+00
5.402000e-01 5.840000e-02 0.000000e+00
5.548000e-01 5.840000e-02 0.000000e+00
5.694000e-01 5.840000e-02 0.000000e+00
5.840000e-01 5.840000e-02 0.000000e+00
0.000000e+00 7.300000e-02 0.000000e+00
1.460000e-02 7.300000e-02 0.000000e+00
2.920000e-02 7.300000e-02 0.000000e+00
4.380000e-02 7.300000e-02 0.000000e+00
5.840000e-02 7.300000e-02 0.000000e+00
7.300000e-02 7.300000e-02 0.000000e+00
8.760000e-02 7.300000e-02 0.000000e+00
1.022000e-01 7.300000e-02 0.000000e+00
1.168000e-01 7.300000e-02 0.000000e+00
1.314000e-01 7.300000e-02 0.000000e+00
1.460000e-01 7.300000e-02 0.000000e+00
1.606000e-01 7.300000e-02 0.000000e+00
1.752000e-01 7.300000e-02 0.000000e+00
1.898000e-01 7.300000e-02 0.000000e+00
2.044000e-01 7.300000e-02 0.000000e+00
2.190000e-01 7.300000e-02 0.000000e+00
2.336000e-01 7.300000e-02 0.000000e+00
2.482000e-01 7.300000e-02 0.000000e+00
2.628000e-01 7.300000e-02 0.000000e+00
2.774000e-01 7.300000e-02 0.000000e+00
2.920000e-01 7.300000e-02 0.000000e+00
3.066000e-01 7.300000e-02 0.000000e+00
3.212000e-01 7.300000e-02 0.000000e+00
3.358000e-01 7.300000e-02 0.000000e+00
3.504000e-01 7.300000e-02 0.000000e+00
3.650000e-01 7.300000e-02 0.000000e+00
3.796000e-01 7.300000e-02 0.000000e+00
3.942000e-01 7.300000e-02 0.000000e+00
4.088000e-01 7.300000e-02 0.000000e+00
4.234000e-01 7.300000e-02 0.000000e+00
4.380000e-01 7.300000e-02 0.000000e+00
4.526000e-01 7.300000e-02 0.000000e+00
4.672000e-01 7.300000e-02 0.000000e+00
4.818000e-01 7.300000e-02 0.000000e+00
4.964000e-01 7.300000e-02 0.000000e+00
5.110000e-01 7.300000e-02 0.000000e+00
5.256000e-01 7.300000e-02 0.000000e+00
5.402000e-01 7.300000e-02 0.000000e+00
5.548000e-01 7.300000e-02 0.000000e+00
5.694000e-01 7.300000e-02 0.000000e+00
5.840000e-01 7.300000e-02 0.000000e+00
0.000000e+00 8.760000e-02 0.000000e+00
1.460000e-02 8.760000e-02 0.000000e+00
2.920000e-02 8.760000e-02 0.000000e+00
4.380000e-02 8.760000e-02 0.000000e+00
5.840000e-02 8.760000e-02 0.000000e+00
7.300000e-02 8.760000e-02 0.000000e+00
8.760000e-02 8.760000e-02 0.000000e+00
1.022000e-01 8.760000e-02 0.000000e+00
[...]
POINT_DATA 11767
VECTORS Velocity float
0.000000e+00 0.000000e+00 0.000000e+00
2.744669e-02 0.000000e+00 0.000000e+00
4.402219e-02 0.000000e+00 0.000000e+00
5.620839e-02 0.000000e+00 0.000000e+00
6.612023e-02 0.000000e+00 0.000000e+00
7.487069e-02 0.000000e+00 0.000000e+00
8.197328e-02 0.000000e+00 0.000000e+00
8.773081e-02 0.000000e+00 0.000000e+00
9.220984e-02 0.000000e+00 0.000000e+00
9.560752e-02 0.000000e+00 0.000000e+00
9.765724e-02 0.000000e+00 0.000000e+00
9.816465e-02 0.000000e+00 0.000000e+00
9.734912e-02 0.000000e+00 0.000000e+00
9.599562e-02 0.000000e+00 0.000000e+00
9.496386e-02 0.000000e+00 0.000000e+00
9.490376e-02 0.000000e+00 0.000000e+00
9.583331e-02 0.000000e+00 0.000000e+00
9.716148e-02 0.000000e+00 0.000000e+00
9.819117e-02 0.000000e+00 0.000000e+00
9.866430e-02 0.000000e+00 0.000000e+00
9.847274e-02 0.000000e+00 0.000000e+00
9.780352e-02 0.000000e+00 0.000000e+00
9.691658e-02 0.000000e+00 0.000000e+00
9.612068e-02 0.000000e+00 0.000000e+00
9.560019e-02 0.000000e+00 0.000000e+00
9.549021e-02 0.000000e+00 0.000000e+00
9.577905e-02 0.000000e+00 0.000000e+00
9.647217e-02 0.000000e+00 0.000000e+00
9.742794e-02 0.000000e+00 0.000000e+00
9.859725e-02 0.000000e+00 0.000000e+00
9.969328e-02 0.000000e+00 0.000000e+00
1.005435e-01 0.000000e+00 0.000000e+00
1.007353e-01 0.000000e+00 0.000000e+00
9.999808e-02 0.000000e+00 0.000000e+00
9.799340e-02 0.000000e+00 0.000000e+00
9.467605e-02 0.000000e+00 0.000000e+00
8.901569e-02 0.000000e+00 0.000000e+00
8.232057e-02 0.000000e+00 0.000000e+00
6.807638e-02 0.000000e+00 0.000000e+00
5.070227e-02 0.000000e+00 0.000000e+00
0.000000e+00 0.000000e+00 0.000000e+00
0.000000e+00 -4.504908e-14 0.000000e+00
2.744669e-02 -2.070510e-14 0.000000e+00
4.402219e-02 -1.762631e-14 0.000000e+00
5.620839e-02 -1.303557e-14 0.000000e+00
6.612023e-02 -2.283850e-15 0.000000e+00
7.487069e-02 1.728467e-14 0.000000e+00
8.197328e-02 -1.178365e-14 0.000000e+00
8.773081e-02 2.671347e-14 0.000000e+00
9.220984e-02 4.203384e-15 0.000000e+00
9.560752e-02 2.172531e-14 0.000000e+00
9.765724e-02 1.562031e-14 0.000000e+00
9.816465e-02 -1.203348e-14 0.000000e+00
9.734912e-02 5.869856e-14 0.000000e+00
9.599562e-02 -8.206105e-14 0.000000e+00
9.496386e-02 -5.204824e-14 0.000000e+00
9.490376e-02 -4.363799e-14 0.000000e+00
9.583331e-02 -1.753723e-13 0.000000e+00
9.716148e-02 -1.465312e-13 0.000000e+00
9.819117e-02 -2.183088e-13 0.000000e+00
9.866430e-02 -3.209407e-13 0.000000e+00
9.847274e-02 -2.343157e-13 0.000000e+00
9.780352e-02 -2.514530e-13 0.000000e+00
9.691658e-02 -1.776163e-13 0.000000e+00
9.612068e-02 -1.451504e-13 0.000000e+00
9.560019e-02 -2.171676e-13 0.000000e+00
9.549021e-02 -1.388774e-13 0.000000e+00
9.577905e-02 -2.971602e-13 0.000000e+00
9.647217e-02 -2.709640e-13 0.000000e+00
9.742794e-02 -3.227026e-13 0.000000e+00
9.859725e-02 -3.711783e-13 0.000000e+00
9.969328e-02 -4.119050e-13 0.000000e+00
1.005435e-01 -4.255477e-13 0.000000e+00
1.007353e-01 -5.063718e-13 0.000000e+00
9.999808e-02 -4.186521e-13 0.000000e+00
9.799340e-02 -3.676364e-13 0.000000e+00
9.467605e-02 -2.407332e-13 0.000000e+00
8.901569e-02 -2.914022e-13 0.000000e+00
8.232057e-02 -1.985836e-13 0.000000e+00
6.807638e-02 -2.572107e-13 0.000000e+00
5.070227e-02 -1.565010e-13 0.000000e+00
0.000000e+00 -2.401595e-13 0.000000e+00
0.000000e+00 -7.804717e-14 0.000000e+00
2.744669e-02 -5.508849e-14 0.000000e+00
4.402219e-02 -2.121706e-14 0.000000e+00
5.620839e-02 -2.196457e-14 0.000000e+00
6.612023e-02 -7.472566e-15 0.000000e+00
7.487069e-02 2.711657e-14 0.000000e+00
8.197328e-02 -2.112576e-14 0.000000e+00
8.773081e-02 3.190934e-14 0.000000e+00
9.220984e-02 -5.098709e-15 0.000000e+00
9.560752e-02 1.137221e-14 0.000000e+00
9.765724e-02 2.864584e-14 0.000000e+00
9.816465e-02 -3.147435e-14 0.000000e+00
9.734912e-02 1.064319e-13 0.000000e+00
9.599562e-02 -1.038431e-13 0.000000e+00
9.496386e-02 -2.613292e-14 0.000000e+00
9.490376e-02 -2.021612e-14 0.000000e+00
9.583331e-02 -1.794613e-13 0.000000e+00
9.716148e-02 -1.460894e-13 0.000000e+00
9.819117e-02 -2.115164e-13 0.000000e+00
9.866430e-02 -3.718809e-13 0.000000e+00
9.847274e-02 -2.599724e-13 0.000000e+00
9.780352e-02 -3.353335e-13 0.000000e+00
9.691658e-02 -2.373885e-13 0.000000e+00
9.612068e-02 -2.408119e-13 0.000000e+00
9.560019e-02 -3.357691e-13 0.000000e+00
9.549021e-02 -2.439572e-13 0.000000e+00
9.577905e-02 -4.100186e-13 0.000000e+00
9.647217e-02 -3.879468e-13 0.000000e+00
9.742794e-02 -4.624492e-13 0.000000e+00
9.859725e-02 -4.881478e-13 0.000000e+00
9.969328e-02 -5.737477e-13 0.000000e+00
1.005435e-01 -5.614462e-13 0.000000e+00
1.007353e-01 -6.354739e-13 0.000000e+00
9.999808e-02 -5.498160e-13 0.000000e+00
9.799340e-02 -4.885495e-13 0.000000e+00
9.467605e-02 -3.879558e-13 0.000000e+00
8.901569e-02 -3.728710e-13 0.000000e+00
8.232057e-02 -3.181377e-13 0.000000e+00
6.807638e-02 -3.203484e-13 0.000000e+00
5.070227e-02 -2.600237e-13 0.000000e+00
0.000000e+00 -3.761848e-13 0.000000e+00
0.000000e+00 -3.970047e-15 0.000000e+00
2.744669e-02 -2.871770e-14 0.000000e+00
4.402219e-02 -1.877178e-14 0.000000e+00
5.620839e-02 -2.320122e-14 0.000000e+00
6.612023e-02 -1.335443e-14 0.000000e+00
7.487069e-02 2.742393e-14 0.000000e+00
8.197328e-02 -2.183392e-14 0.000000e+00
8.773081e-02 3.617227e-14 0.000000e+00
9.220984e-02 -7.582004e-15 0.000000e+00
9.560752e-02 6.523024e-16 0.000000e+00
9.765724e-02 2.749652e-14 0.000000e+00
9.816465e-02 -3.683157e-14 0.000000e+00
9.734912e-02 1.241335e-13 0.000000e+00
9.599562e-02 -1.038356e-13 0.000000e+00
9.496386e-02 6.364471e-15 0.000000e+00
9.490376e-02 2.322130e-14 0.000000e+00
9.583331e-02 -1.343473e-13 0.000000e+00
9.716148e-02 -5.931489e-14 0.000000e+00
9.819117e-02 -1.305729e-13 0.000000e+00
9.866430e-02 -2.815492e-13 0.000000e+00
9.847274e-02 -1.863899e-13 0.000000e+00
9.780352e-02 -2.885590e-13 0.000000e+00
9.691658e-02 -2.349459e-13 0.000000e+00
9.612068e-02 -2.383736e-13 0.000000e+00
9.560019e-02 -3.606067e-13 0.000000e+00
9.549021e-02 -2.507163e-13 0.000000e+00
9.577905e-02 -4.088986e-13 0.000000e+00
9.647217e-02 -3.554555e-13 0.000000e+00
9.742794e-02 -4.370279e-13 0.000000e+00
9.859725e-02 -4.262538e-13 0.000000e+00
9.969328e-02 -5.174613e-13 0.000000e+00
1.005435e-01 -4.771000e-13 0.000000e+00
1.007353e-01 -5.280858e-13 0.000000e+00
9.999808e-02 -4.476023e-13 0.000000e+00
9.799340e-02 -4.513478e-13 0.000000e+00
9.467605e-02 -3.610318e-13 0.000000e+00
8.901569e-02 -3.591383e-13 0.000000e+00
8.232057e-02 -2.714095e-13 0.000000e+00
6.807638e-02 -3.415208e-13 0.000000e+00
5.070227e-02 -2.162350e-13 0.000000e+00
0.000000e+00 -3.841371e-13 0.000000e+00
0.000000e+00 -9.494491e-15 0.000000e+00
2.744669e-02 -3.765047e-14 0.000000e+00
4.402219e-02 -2.785706e-14 0.000000e+00
5.620839e-02 -2.363368e-14 0.000000e+00
6.612023e-02 -1.003146e-14 0.000000e+00
7.487069e-02 1.695631e-14 0.000000e+00
8.197328e-02 -1.988205e-14 0.000000e+00
8.773081e-02 3.161540e-14 0.000000e+00
9.220984e-02 3.854316e-15 0.000000e+00
9.560752e-02 -2.045365e-15 0.000000e+00
9.765724e-02 3.474652e-14 0.000000e+00
9.816465e-02 -3.778897e-14 0.000000e+00
9.734912e-02 9.962905e-14 0.000000e+00
9.599562e-02 -1.086610e-13 0.000000e+00
9.496386e-02 -6.378661e-15 0.000000e+00
9.490376e-02 -5.237035e-15 0.000000e+00
9.583331e-02 -1.359521e-13 0.000000e+00
9.716148e-02 -9.081297e-14 0.000000e+00
9.819117e-02 -1.474933e-13 0.000000e+00
9.866430e-02 -2.833842e-13 0.000000e+00
9.847274e-02 -1.855653e-13 0.000000e+00
9.780352e-02 -2.622236e-13 0.000000e+00
9.691658e-02 -2.079209e-13 0.000000e+00
9.612068e-02 -2.070754e-13 0.000000e+00
9.560019e-02 -3.064527e-13 0.000000e+00
9.549021e-02 -1.987574e-13 0.000000e+00
9.577905e-02 -3.423903e-13 0.000000e+00
9.647217e-02 -3.004808e-13 0.000000e+00
9.742794e-02 -3.519292e-13 0.000000e+00
9.859725e-02 -3.727858e-13 0.000000e+00
9.969328e-02 -4.280407e-13 0.000000e+00
1.005435e-01 -3.977720e-13 0.000000e+00
1.007353e-01 -4.458415e-13 0.000000e+00
9.999808e-02 -3.869677e-13 0.000000e+00
9.799340e-02 -3.693749e-13 0.000000e+00
9.467605e-02 -3.004066e-13 0.000000e+00
8.901569e-02 -2.912624e-13 0.000000e+00
8.232057e-02 -2.409226e-13 0.000000e+00
6.807638e-02 -2.656500e-13 0.000000e+00
5.070227e-02 -2.126441e-13 0.000000e+00
0.000000e+00 -3.533302e-13 0.000000e+00
0.000000e+00 -6.722625e-14 0.000000e+00
2.744669e-02 -8.033574e-14 0.000000e+00
4.402219e-02 -2.709286e-14 0.000000e+00
5.620839e-02 -1.345140e-14 0.000000e+00
6.612023e-02 -1.549847e-14 0.000000e+00
7.487069e-02 6.042969e-15 0.000000e+00
8.197328e-02 -2.268179e-14 0.000000e+00
8.773081e-02 2.257299e-14 0.000000e+00
9.220984e-02 6.516491e-15 0.000000e+00
9.560752e-02 -1.923957e-15 0.000000e+00
9.765724e-02 2.435075e-14 0.000000e+00
9.816465e-02 -2.708657e-14 0.000000e+00
9.734912e-02 4.324266e-14 0.000000e+00
9.599562e-02 -8.412525e-14 0.000000e+00
9.496386e-02 -4.317194e-14 0.000000e+00
9.490376e-02 -3.245318e-14 0.000000e+00
9.583331e-02 -1.455505e-13 0.000000e+00
9.716148e-02 -1.090617e-13 0.000000e+00
9.819117e-02 -1.582472e-13 0.000000e+00
9.866430e-02 -2.502521e-13 0.000000e+00
9.847274e-02 -1.791958e-13 0.000000e+00
9.780352e-02 -1.837140e-13 0.000000e+00
9.691658e-02 -1.542936e-13 0.000000e+00
9.612068e-02 -1.294032e-13 0.000000e+00
9.560019e-02 -1.896913e-13 0.000000e+00
9.549021e-02 -1.209877e-13 0.000000e+00
9.577905e-02 -2.245627e-13 0.000000e+00
9.647217e-02 -1.991730e-13 0.000000e+00
9.742794e-02 -2.253469e-13 0.000000e+00
9.859725e-02 -2.627082e-13 0.000000e+00
9.969328e-02 -2.909144e-13 0.000000e+00
1.005435e-01 -2.816960e-13 0.000000e+00
1.007353e-01 -3.399414e-13 0.000000e+00
9.999808e-02 -2.662277e-13 0.000000e+00
9.799340e-02 -2.660869e-13 0.000000e+00
9.467605e-02 -1.619474e-13 0.000000e+00
8.901569e-02 -2.181877e-13 0.000000e+00
8.232057e-02 -1.312695e-13 0.000000e+00
6.807638e-02 -2.141992e-13 0.000000e+00
5.070227e-02 -9.063752e-14 0.000000e+00
0.000000e+00 -1.569302e-13 0.000000e+00
0.000000e+00 0.000000e+00 0.000000e+00
2.744669e-02 0.000000e+00 0.000000e+00
4.402219e-02 0.000000e+00 0.000000e+00
5.620839e-02 0.000000e+00 0.000000e+00
6.612023e-02 0.000000e+00 0.000000e+00
7.487069e-02 0.000000e+00 0.000000e+00
8.197328e-02 0.000000e+00 0.000000e+00
8.773081e-02 0.000000e+00 0.000000e+00
9.220984e-02 0.000000e+00 0.000000e+00
9.560752e-02 0.000000e+00 0.000000e+00
9.765724e-02 0.000000e+00 0.000000e+00
9.816465e-02 0.000000e+00 0.000000e+00
9.734912e-02 0.000000e+00 0.000000e+00
9.599562e-02 0.000000e+00 0.000000e+00
9.496386e-02 0.000000e+00 0.000000e+00
9.490376e-02 0.000000e+00 0.000000e+00
9.583331e-02 0.000000e+00 0.000000e+00
9.716148e-02 0.000000e+00 0.000000e+00
9.819117e-02 0.000000e+00 0.000000e+00
9.866430e-02 0.000000e+00 0.000000e+00
9.847274e-02 0.000000e+00 0.000000e+00
9.780352e-02 0.000000e+00 0.000000e+00
9.691658e-02 0.000000e+00 0.000000e+00
9.612068e-02 0.000000e+00 0.000000e+00
9.560019e-02 0.000000e+00 0.000000e+00
9.549021e-02 0.000000e+00 0.000000e+00
9.577905e-02 0.000000e+00 0.000000e+00
9.647217e-02 0.000000e+00 0.000000e+00
9.742794e-02 0.000000e+00 0.000000e+00
9.859725e-02 0.000000e+00 0.000000e+00
9.969328e-02 0.000000e+00 0.000000e+00
1.005435e-01 0.000000e+00 0.000000e+00
1.007353e-01 0.000000e+00 0.000000e+00
9.999808e-02 0.000000e+00 0.000000e+00
9.799340e-02 0.000000e+00 0.000000e+00
9.467605e-02 0.000000e+00 0.000000e+00
8.901569e-02 0.000000e+00 0.000000e+00
8.232057e-02 0.000000e+00 0.000000e+00
6.807638e-02 0.000000e+00 0.000000e+00
5.070227e-02 0.000000e+00 0.000000e+00
0.000000e+00 0.000000e+00 0.000000e+00
0.000000e+00 0.000000e+00 -2.560124e-02
9.733153e-03 0.000000e+00 -2.075098e-02
2.055254e-02 0.000000e+00 -1.465514e-02
2.921585e-02 0.000000e+00 -1.229434e-02
3.628836e-02 0.000000e+00 -1.072732e-02
4.200431e-02 0.000000e+00 -9.516490e-03
4.691240e-02 0.000000e+00 -8.118963e-03
5.043885e-02 0.000000e+00 -6.736073e-03
5.226131e-02 0.000000e+00 -5.324800e-03
5.202934e-02 0.000000e+00 -3.876326e-03
4.998957e-02 0.000000e+00 -2.366194e-03
4.671165e-02 0.000000e+00 -1.043247e-03
4.282144e-02 0.000000e+00 -2.802708e-04
3.889931e-02 0.000000e+00 -3.043355e-04
3.551134e-02 0.000000e+00 -1.045312e-03
3.309263e-02 0.000000e+00 -2.143981e-03
3.181224e-02 0.000000e+00 -3.028749e-03
3.156872e-02 0.000000e+00 -3.335654e-03
3.209148e-02 0.000000e+00 -3.227956e-03
3.309896e-02 0.000000e+00 -2.910902e-03
3.429945e-02 0.000000e+00 -2.553644e-03
3.556214e-02 0.000000e+00 -2.307504e-03
3.668208e-02 0.000000e+00 -2.215444e-03
3.763098e-02 0.000000e+00 -2.293030e-03
3.841787e-02 0.000000e+00 -2.502364e-03
3.918882e-02 0.000000e+00 -2.803954e-03
4.008723e-02 0.000000e+00 -3.143933e-03
4.122000e-02 0.000000e+00 -3.472796e-03
4.269477e-02 0.000000e+00 -3.755152e-03
4.447798e-02 0.000000e+00 -3.922452e-03
4.654927e-02 0.000000e+00 -3.876989e-03
4.861122e-02 0.000000e+00 -3.553750e-03
5.039101e-02 0.000000e+00 -2.821783e-03
5.118891e-02 0.000000e+00 -1.653083e-03
5.063399e-02 0.000000e+00 -3.585724e-04
4.795716e-02 0.000000e+00 1.919679e-03
4.330133e-02 0.000000e+00 2.909012e-03
3.639594e-02 0.000000e+00 7.674906e-03
2.739835e-02 0.000000e+00 9.107581e-03
1.648709e-02 0.000000e+00 2.404797e-02
0.000000e+00 0.000000e+00 4.316337e-02
0.000000e+00 -4.546534e-14 -2.560124e-02
9.733153e-03 -2.536449e-14 -2.075098e-02
2.055254e-02 1.109638e-14 -1.465514e-02
2.921585e-02 1.370823e-14 -1.229434e-02
3.628836e-02 2.675749e-15 -1.072732e-02
4.200431e-02 6.438200e-15 -9.516490e-03
4.691240e-02 -8.956957e-15 -8.118963e-03
5.043885e-02 -1.874187e-14 -6.736073e-03
5.226131e-02 -3.972916e-14 -5.324800e-03
5.202934e-02 -4.455991e-14 -3.876326e-03
4.998957e-02 -4.622069e-14 -2.366194e-03
4.671165e-02 -4.475561e-14 -1.043247e-03
4.282144e-02 -3.898765e-14 -2.802708e-04
3.889931e-02 -2.573490e-14 -3.043355e-04
3.551134e-02 -1.324659e-14 -1.045312e-03
3.309263e-02 -9.290697e-14 -2.143981e-03
3.181224e-02 -1.370257e-13 -3.028749e-03
3.156872e-02 -1.944924e-13 -3.335654e-03
3.209148e-02 -2.413929e-13 -3.227956e-03
3.309896e-02 -9.228390e-14 -2.910902e-03
3.429945e-02 2.445937e-14 -2.553644e-03
3.556214e-02 1.471828e-13 -2.307504e-03
3.668208e-02 3.189340e-13 -2.215444e-03
3.763098e-02 2.921752e-13 -2.293030e-03
3.841787e-02 4.452632e-13 -2.502364e-03
3.918882e-02 3.354047e-13 -2.803954e-03
4.008723e-02 3.397384e-13 -3.143933e-03
4.122000e-02 3.432985e-13 -3.472796e-03
4.269477e-02 2.233151e-13 -3.755152e-03
4.447798e-02 1.950924e-13 -3.922452e-03
4.654927e-02 1.242055e-13 -3.876989e-03
4.861122e-02 1.194964e-13 -3.553750e-03
5.039101e-02 1.283022e-13 -2.821783e-03
5.118891e-02 1.979508e-13 -1.653083e-03
5.063399e-02 5.032387e-14 -3.585724e-04
4.795716e-02 8.245765e-14 1.919679e-03
4.330133e-02 -1.358826e-15 2.909012e-03
3.639594e-02 1.518506e-13 7.674906e-03
2.739835e-02 -5.096544e-15 9.107581e-03
1.648709e-02 1.762312e-13 2.404797e-02
0.000000e+00 1.731093e-14 4.316337e-02
0.000000e+00 -7.182006e-14 -2.560124e-02
9.733153e-03 -6.450931e-14 -2.075098e-02
2.055254e-02 -8.286159e-16 -1.465514e-02
2.921585e-02 -4.433267e-15 -1.229434e-02
3.628836e-02 -1.449774e-14 -1.072732e-02
4.200431e-02 4.703672e-15 -9.516490e-03
4.691240e-02 -1.349970e-14 -8.118963e-03
5.043885e-02 -1.723156e-14 -6.736073e-03
5.226131e-02 -3.540500e-14 -5.324800e-03
5.202934e-02 -3.268227e-14 -3.876326e-03
4.998957e-02 -4.540417e-14 -2.366194e-03
4.671165e-02 -3.781911e-14 -1.043247e-03
4.282144e-02 -3.368466e-14 -2.802708e-04
3.889931e-02 -1.480502e-14 -3.043355e-04
3.551134e-02 4.459333e-15 -1.045312e-03
3.309263e-02 -8.204938e-14 -2.143981e-03
3.181224e-02 -9.653481e-14 -3.028749e-03
3.156872e-02 -1.811918e-13 -3.335654e-03
3.209148e-02 -2.503920e-13 -3.227956e-03
3.309896e-02 -1.480891e-13 -2.910902e-03
3.429945e-02 -6.701517e-14 -2.553644e-03
3.556214e-02 9.510017e-15 -2.307504e-03
3.668208e-02 1.971249e-13 -2.215444e-03
3.763098e-02 1.079876e-13 -2.293030e-03
3.841787e-02 3.318939e-13 -2.502364e-03
3.918882e-02 1.813401e-13 -2.803954e-03
4.008723e-02 2.197925e-13 -3.143933e-03
4.122000e-02 1.568373e-13 -3.472796e-03
4.269477e-02 9.514468e-14 -3.755152e-03
4.447798e-02 1.936038e-14 -3.922452e-03
4.654927e-02 9.537886e-15 -3.876989e-03
4.861122e-02 1.030213e-14 -3.553750e-03
5.039101e-02 -6.441946e-15 -2.821783e-03
5.118891e-02 1.062829e-13 -1.653083e-03
5.063399e-02 -5.368553e-15 -3.585724e-04
4.795716e-02 4.823320e-14 1.919679e-03
4.330133e-02 -3.004703e-14 2.909012e-03
3.639594e-02 1.079948e-13 7.674906e-03
2.739835e-02 3.283002e-14 9.107581e-03
1.648709e-02 1.483772e-13 2.404797e-02
0.000000e+00 3.886449e-14 4.316337e-02
0.000000e+00 -3.994227e-14 -2.560124e-02
9.733153e-03 -5.327040e-14 -2.075098e-02
2.055254e-02 -1.893280e-14 -1.465514e-02
2.921585e-02 -1.886222e-14 -1.229434e-02
3.628836e-02 -3.061526e-14 -1.072732e-02
4.200431e-02 1.942629e-15 -9.516490e-03
4.691240e-02 -2.261225e-14 -8.118963e-03
5.043885e-02 -1.265656e-14 -6.736073e-03
5.226131e-02 -1.075467e-14 -5.324800e-03
5.202934e-02 -7.100946e-15 -3.876326e-03
4.998957e-02 -2.389988e-14 -2.366194e-03
4.671165e-02 -1.301256e-14 -1.043247e-03
4.282144e-02 -2.649292e-14 -2.802708e-04
3.889931e-02 -4.887799e-15 -3.043355e-04
3.551134e-02 3.230104e-14 -1.045312e-03
3.309263e-02 -2.517059e-14 -2.143981e-03
3.181224e-02 1.090338e-14 -3.028749e-03
3.156872e-02 -7.146728e-14 -3.335654e-03
3.209148e-02 -1.608367e-13 -3.227956e-03
3.309896e-02 -1.207940e-13 -2.910902e-03
3.429945e-02 -1.522141e-13 -2.553644e-03
3.556214e-02 -1.645255e-13 -2.307504e-03
3.668208e-02 -5.880929e-14 -2.215444e-03
3.763098e-02 -2.031388e-13 -2.293030e-03
3.841787e-02 5.387509e-15 -2.502364e-03
3.918882e-02 -1.188162e-13 -2.803954e-03
4.008723e-02 -8.222225e-14 -3.143933e-03
4.122000e-02 -1.100737e-13 -3.472796e-03
4.269477e-02 -1.446357e-13 -3.755152e-03
4.447798e-02 -1.726341e-13 -3.922452e-03
4.654927e-02 -1.790305e-13 -3.876989e-03
4.861122e-02 -1.308576e-13 -3.553750e-03
5.039101e-02 -1.929665e-13 -2.821783e-03
5.118891e-02 -2.896989e-14 -1.653083e-03
5.063399e-02 -9.460657e-14 -3.585724e-04
4.795716e-02 6.765357e-15 1.919679e-03
4.330133e-02 -1.117009e-13 2.909012e-03
3.639594e-02 4.354790e-14 7.674906e-03
2.739835e-02 -7.300241e-14 9.107581e-03
1.648709e-02 1.267741e-13 2.404797e-02
0.000000e+00 -2.278047e-14 4.316337e-02
0.000000e+00 -5.022665e-14 -2.560124e-02
9.733153e-03 -5.059011e-14 -2.075098e-02
2.055254e-02 -1.348153e-14 -1.465514e-02
2.921585e-02 -3.876529e-15 -1.229434e-02
3.628836e-02 -1.272504e-14 -1.072732e-02
4.200431e-02 3.742948e-15 -9.516490e-03
4.691240e-02 -1.457686e-14 -8.118963e-03
5.043885e-02 -1.642148e-14 -6.736073e-03
5.226131e-02 -2.306305e-14 -5.324800e-03
5.202934e-02 -1.301613e-14 -3.876326e-03
4.998957e-02 -2.559390e-14 -2.366194e-03
4.671165e-02 -1.902458e-14 -1.043247e-03
4.282144e-02 -1.865303e-14 -2.802708e-04
3.889931e-02 -5.837955e-16 -3.043355e-04
3.551134e-02 3.163549e-14 -1.045312e-03
3.309263e-02 -3.092291e-14 -2.143981e-03
3.181224e-02 -8.769355e-15 -3.028749e-03
3.156872e-02 -7.709169e-14 -3.335654e-03
3.209148e-02 -1.480260e-13 -3.227956e-03
3.309896e-02 -1.096147e-13 -2.910902e-03
3.429945e-02 -9.771240e-14 -2.553644e-03
3.556214e-02 -1.138993e-13 -2.307504e-03
3.668208e-02 1.090591e-14 -2.215444e-03
3.763098e-02 -1.082251e-13 -2.293030e-03
3.841787e-02 9.944024e-14 -2.502364e-03
3.918882e-02 -4.661947e-14 -2.803954e-03
4.008723e-02 -4.076490e-15 -3.143933e-03
4.122000e-02 -2.214187e-14 -3.472796e-03
4.269477e-02 -5.807335e-14 -3.755152e-03
4.447798e-02 -8.701627e-14 -3.922452e-03
4.654927e-02 -7.436004e-14 -3.876989e-03
4.861122e-02 -6.821676e-14 -3.553750e-03
5.039101e-02 -1.093530e-13 -2.821783e-03
5.118891e-02 8.367895e-17 -1.653083e-03
5.063399e-02 -4.585497e-14 -3.585724e-04
4.795716e-02 -1.462619e-14 1.919679e-03
4.330133e-02 -7.439947e-14 2.909012e-03
3.639594e-02 3.220065e-14 7.674906e-03
2.739835e-02 -1.941057e-14 9.107581e-03
1.648709e-02 9.917085e-14 2.404797e-02
0.000000e+00 -1.448149e-16 4.316337e-02
0.000000e+00 -7.927702e-14 -2.560124e-02
9.733153e-03 -5.164284e-14 -2.075098e-02
2.055254e-02 -1.282646e-15 -1.465514e-02
2.921585e-02 6.318321e-15 -1.229434e-02
3.628836e-02 -1.317202e-16 -1.072732e-02
4.200431e-02 3.966065e-15 -9.516490e-03
4.691240e-02 -1.088466e-14 -8.118963e-03