# vtk DataFile Version 3.0
vtk output
ASCII
DATASET UNSTRUCTURED_GRID
POINTS 11767 float
0.000000e+00 0.000000e+00 0.000000e+00
1.460000e-02 0.000000e+00 0.000000e+00
2.920000e-02 0.000000e+00 0.000000e+00
4.380000e-02 0.000000e+00 0.000000e+00
5.840000e-02 0.000000e+00 0.000000e+00
7.300000e-02 0.000000e+00 0.000000e+00
8.760000e-02 0.000000e+00 0.000000e+00
1.022000e-01 0.000000e+00 0.000000e+00
1.168000e-01 0.000000e+00 0.000000e+00
1.314000e-01 0.000000e+00 0.000000e+00
1.460000e-01 0.000000e+00 0.000000e+00
1.606000e-01 0.000000e+00 0.000000e+00
1.752000e-01 0.000000e+00 0.000000e+00
1.898000e-01 0.000000e+00 0.000000e+00
2.044000e-01 0.000000e+00 0.000000e+00
2.190000e-01 0.000000e+00 0.000000e+00
2.336000e-01 0.000000e+00 0.000000e+00
2.482000e-01 0.000000e+00 0.000000e+00
2.628000e-01 0.000000e+00 0.000000e+00
2.774000e-01 0.000000e+00 0.000000e+00
2.920000e-01 0.000000e+00 0.000000e+00
3.066000e-01 0.000000e+00 0.000000e+00
3.212000e-01 0.000000e+00 0.000000e+00
3.358000e-01 0.000000e+00 0.000000e+00
3.504000e-01 0.000000e+00 0.000000e+00
3.650000e-01 0.000000e+00 0.000000e+00
3.796000e-01 0.000000e+00 0.000000e+00
3.942000e-01 0.000000e+00 0.000000e+00
4.088000e-01 0.000000e+00 0.000000e+00
4.234000e-01 0.000000e+00 0.000000e+00
4.380000e-01 0.000000e+00 0.000000e+00
4.526000e-01 0.000000e+00 0.000000e+00
4.672000e-01 0.000000e+00 0.000000e+00
4.818000e-01 0.000000e+00 0.000000e+00
4.964000e-01 0.000000e+00 0.000000e+00
5.110000e-01 0.000000e+00 0.000000e+00
5.256000e-01 0.000000e+00 0.000000e+00
5.402000e-01 0.000000e+00 0.000000e+00
5.548000e-01 0.000000e+00 0.000000e+00
5.694000e-01 0.000000e+00 0.000000e+00
5.840000e-01 0.000000e+00 0.000000e+00
0.000000e+00 1.460000e-02 0.000000e+00
1.460000e-02 1.460000e-02 0.000000e+00
2.920000e-02 1.460000e-02 0.000000e+00
4.380000e-02 1.460000e-02 0.000000e+00
5.840000e-02 1.460000e-02 0.000000e+00
7.300000e-02 1.460000e-02 0.000000e+00
8.760000e-02 1.460000e-02 0.000000e+00
1.022000e-01 1.460000e-02 0.000000e+00
1.168000e-01 1.460000e-02 0.000000e+00
1.314000e-01 1.460000e-02 0.000000e+00
1.460000e-01 1.460000e-02 0.000000e+00
1.606000e-01 1.460000e-02 0.000000e+00
1.752000e-01 1.460000e-02 0.000000e+00
1.898000e-01 1.460000e-02 0.000000e+00
2.044000e-01 1.460000e-02 0.000000e+00
2.190000e-01 1.460000e-02 0.000000e+00
2.336000e-01 1.460000e-02 0.000000e+00
2.482000e-01 1.460000e-02 0.000000e+00
2.628000e-01 1.460000e-02 0.000000e+00
2.774000e-01 1.460000e-02 0.000000e+00
2.920000e-01 1.460000e-02 0.000000e+00
3.066000e-01 1.460000e-02 0.000000e+00
3.212000e-01 1.460000e-02 0.000000e+00
3.358000e-01 1.460000e-02 0.000000e+00
3.504000e-01 1.460000e-02 0.000000e+00
3.650000e-01 1.460000e-02 0.000000e+00
3.796000e-01 1.460000e-02 0.000000e+00
3.942000e-01 1.460000e-02 0.000000e+00
4.088000e-01 1.460000e-02 0.000000e+00
4.234000e-01 1.460000e-02 0.000000e+00
4.380000e-01 1.460000e-02 0.000000e+00
4.526000e-01 1.460000e-02 0.000000e+00
4.672000e-01 1.460000e-02 0.000000e+00
4.818000e-01 1.460000e-02 0.000000e+00
4.964000e-01 1.460000e-02 0.000000e+00
5.110000e-01 1.460000e-02 0.000000e+00
5.256000e-01 1.460000e-02 0.000000e+00
5.402000e-01 1.460000e-02 0.000000e+00
5.548000e-01 1.460000e-02 0.000000e+00
5.694000e-01 1.460000e-02 0.000000e+00
5.840000e-01 1.460000e-02 0.000000e+00
0.000000e+00 2.920000e-02 0.000000e+00
1.460000e-02 2.920000e-02 0.000000e+00
2.920000e-02 2.920000e-02 0.000000e+00
4.380000e-02 2.920000e-02 0.000000e+00
5.840000e-02 2.920000e-02 0.000000e+00
7.300000e-02 2.920000e-02 0.000000e+00
8.760000e-02 2.920000e-02 0.000000e+00
1.022000e-01 2.920000e-02 0.000000e+00
1.168000e-01 2.920000e-02 0.000000e+00
1.314000e-01 2.920000e-02 0.000000e+00
1.460000e-01 2.920000e-02 0.000000e+00
1.606000e-01 2.920000e-02 0.000000e+00
1.752000e-01 2.920000e-02 0.000000e+00
1.898000e-01 2.920000e-02 0.000000e+00
2.044000e-01 2.920000e-02 0.000000e+00
2.190000e-01 2.920000e-02 0.000000e+00
2.336000e-01 2.920000e-02 0.000000e+00
2.482000e-01 2.920000e-02 0.000000e+00
2.628000e-01 2.920000e-02 0.000000e+00
2.774000e-01 2.920000e-02 0.000000e+00
2.920000e-01 2.920000e-02 0.000000e+00
3.066000e-01 2.920000e-02 0.000000e+00
3.212000e-01 2.920000e-02 0.000000e+00
3.358000e-01 2.920000e-02 0.000000e+00
3.504000e-01 2.920000e-02 0.000000e+00
3.650000e-01 2.920000e-02 0.000000e+00
3.796000e-01 2.920000e-02 0.000000e+00
3.942000e-01 2.920000e-02 0.000000e+00
4.088000e-01 2.920000e-02 0.000000e+00
4.234000e-01 2.920000e-02 0.000000e+00
4.380000e-01 2.920000e-02 0.000000e+00
4.526000e-01 2.920000e-02 0.000000e+00
4.672000e-01 2.920000e-02 0.000000e+00
4.818000e-01 2.920000e-02 0.000000e+00
4.964000e-01 2.920000e-02 0.000000e+00
5.110000e-01 2.920000e-02 0.000000e+00
5.256000e-01 2.920000e-02 0.000000e+00
5.402000e-01 2.920000e-02 0.000000e+00
5.548000e-01 2.920000e-02 0.000000e+00
5.694000e-01 2.920000e-02 0.000000e+00
5.840000e-01 2.920000e-02 0.000000e+00
0.000000e+00 4.380000e-02 0.000000e+00
1.460000e-02 4.380000e-02 0.000000e+00
2.920000e-02 4.380000e-02 0.000000e+00
4.380000e-02 4.380000e-02 0.000000e+00
5.840000e-02 4.380000e-02 0.000000e+00
7.300000e-02 4.380000e-02 0.000000e+00
8.760000e-02 4.380000e-02 0.000000e+00
1.022000e-01 4.380000e-02 0.000000e+00
1.168000e-01 4.380000e-02 0.000000e+00
1.314000e-01 4.380000e-02 0.000000e+00
1.460000e-01 4.380000e-02 0.000000e+00
1.606000e-01 4.380000e-02 0.000000e+00
1.752000e-01 4.380000e-02 0.000000e+00
1.898000e-01 4.380000e-02 0.000000e+00
2.044000e-01 4.380000e-02 0.000000e+00
2.190000e-01 4.380000e-02 0.000000e+00
2.336000e-01 4.380000e-02 0.000000e+00
2.482000e-01 4.380000e-02 0.000000e+00
2.628000e-01 4.380000e-02 0.000000e+00
2.774000e-01 4.380000e-02 0.000000e+00
2.920000e-01 4.380000e-02 0.000000e+00
3.066000e-01 4.380000e-02 0.000000e+00
3.212000e-01 4.380000e-02 0.000000e+00
3.358000e-01 4.380000e-02 0.000000e+00
3.504000e-01 4.380000e-02 0.000000e+00
3.650000e-01 4.380000e-02 0.000000e+00
3.796000e-01 4.380000e-02 0.000000e+00
3.942000e-01 4.380000e-02 0.000000e+00
4.088000e-01 4.380000e-02 0.000000e+00
4.234000e-01 4.380000e-02 0.000000e+00
4.380000e-01 4.380000e-02 0.000000e+00
4.526000e-01 4.380000e-02 0.000000e+00
4.672000e-01 4.380000e-02 0.000000e+00
4.818000e-01 4.380000e-02 0.000000e+00
4.964000e-01 4.380000e-02 0.000000e+00
5.110000e-01 4.380000e-02 0.000000e+00
5.256000e-01 4.380000e-02 0.000000e+00
5.402000e-01 4.380000e-02 0.000000e+00
5.548000e-01 4.380000e-02 0.000000e+00
5.694000e-01 4.380000e-02 0.000000e+00
5.840000e-01 4.380000e-02 0.000000e+00
0.000000e+00 5.840000e-02 0.000000e+00
1.460000e-02 5.840000e-02 0.000000e+00
2.920000e-02 5.840000e-02 0.000000e+00
4.380000e-02 5.840000e-02 0.000000e+00
5.840000e-02 5.840000e-02 0.000000e+00
7.300000e-02 5.840000e-02 0.000000e+00
8.760000e-02 5.840000e-02 0.000000e+00
1.022000e-01 5.840000e-02 0.000000e+00
1.168000e-01 5.840000e-02 0.000000e+00
1.314000e-01 5.840000e-02 0.000000e+00
1.460000e-01 5.840000e-02 0.000000e+00
1.606000e-01 5.840000e-02 0.000000e+00
1.752000e-01 5.840000e-02 0.000000e+00
1.898000e-01 5.840000e-02 0.000000e+00
2.044000e-01 5.840000e-02 0.000000e+00
2.190000e-01 5.840000e-02 0.000000e+00
2.336000e-01 5.840000e-02 0.000000e+00
2.482000e-01 5.840000e-02 0.000000e+00
2.628000e-01 5.840000e-02 0.000000e+00
2.774000e-01 5.840000e-02 0.000000e+00
2.920000e-01 5.840000e-02 0.000000e+00
3.066000e-01 5.840000e-02 0.000000e+00
3.212000e-01 5.840000e-02 0.000000e+00
3.358000e-01 5.840000e-02 0.000000e+00
3.504000e-01 5.840000e-02 0.000000e+00
3.650000e-01 5.840000e-02 0.000000e+00
3.796000e-01 5.840000e-02 0.000000e+00
3.942000e-01 5.840000e-02 0.000000e+00
4.088000e-01 5.840000e-02 0.000000e+00
4.234000e-01 5.840000e-02 0.000000e+00
4.380000e-01 5.840000e-02 0.000000e+00
4.526000e-01 5.840000e-02 0.000000e+00
4.672000e-01 5.840000e-02 0.000000e+00
4.818000e-01 5.840000e-02 0.000000e+00
4.964000e-01 5.840000e-02 0.000000e+00
5.110000e-01 5.840000e-02 0.000000e+00
5.256000e-01 5.840000e-02 0.000000e+00
5.402000e-01 5.840000e-02 0.000000e+00
5.548000e-01 5.840000e-02 0.000000e+00
5.694000e-01 5.840000e-02 0.000000e+00
5.840000e-01 5.840000e-02 0.000000e+00
0.000000e+00 7.300000e-02 0.000000e+00
1.460000e-02 7.300000e-02 0.000000e+00
2.920000e-02 7.300000e-02 0.000000e+00
4.380000e-02 7.300000e-02 0.000000e+00
5.840000e-02 7.300000e-02 0.000000e+00
7.300000e-02 7.300000e-02 0.000000e+00
8.760000e-02 7.300000e-02 0.000000e+00
1.022000e-01 7.300000e-02 0.000000e+00
1.168000e-01 7.300000e-02 0.000000e+00
1.314000e-01 7.300000e-02 0.000000e+00
1.460000e-01 7.300000e-02 0.000000e+00
1.606000e-01 7.300000e-02 0.000000e+00
1.752000e-01 7.300000e-02 0.000000e+00
1.898000e-01 7.300000e-02 0.000000e+00
2.044000e-01 7.300000e-02 0.000000e+00
2.190000e-01 7.300000e-02 0.000000e+00
2.336000e-01 7.300000e-02 0.000000e+00
2.482000e-01 7.300000e-02 0.000000e+00
2.628000e-01 7.300000e-02 0.000000e+00
2.774000e-01 7.300000e-02 0.000000e+00
2.920000e-01 7.300000e-02 0.000000e+00
3.066000e-01 7.300000e-02 0.000000e+00
3.212000e-01 7.300000e-02 0.000000e+00
3.358000e-01 7.300000e-02 0.000000e+00
3.504000e-01 7.300000e-02 0.000000e+00
3.650000e-01 7.300000e-02 0.000000e+00
3.796000e-01 7.300000e-02 0.000000e+00
3.942000e-01 7.300000e-02 0.000000e+00
4.088000e-01 7.300000e-02 0.000000e+00
4.234000e-01 7.300000e-02 0.000000e+00
4.380000e-01 7.300000e-02 0.000000e+00
4.526000e-01 7.300000e-02 0.000000e+00
4.672000e-01 7.300000e-02 0.000000e+00
4.818000e-01 7.300000e-02 0.000000e+00
4.964000e-01 7.300000e-02 0.000000e+00
5.110000e-01 7.300000e-02 0.000000e+00
5.256000e-01 7.300000e-02 0.000000e+00
5.402000e-01 7.300000e-02 0.000000e+00
5.548000e-01 7.300000e-02 0.000000e+00
5.694000e-01 7.300000e-02 0.000000e+00
5.840000e-01 7.300000e-02 0.000000e+00
0.000000e+00 8.760000e-02 0.000000e+00
1.460000e-02 8.760000e-02 0.000000e+00
2.920000e-02 8.760000e-02 0.000000e+00
4.380000e-02 8.760000e-02 0.000000e+00
5.840000e-02 8.760000e-02 0.000000e+00
7.300000e-02 8.760000e-02 0.000000e+00
8.760000e-02 8.760000e-02 0.000000e+00
1.022000e-01 8.760000e-02 0.000000e+00
[...]
POINT_DATA 11767
VECTORS Velocity float
0.000000e+00 0.000000e+00 0.000000e+00
1.060012e-02 0.000000e+00 0.000000e+00
1.544078e-02 0.000000e+00 0.000000e+00
1.783893e-02 0.000000e+00 0.000000e+00
1.835505e-02 0.000000e+00 0.000000e+00
1.777987e-02 0.000000e+00 0.000000e+00
1.631292e-02 0.000000e+00 0.000000e+00
1.409917e-02 0.000000e+00 0.000000e+00
1.125806e-02 0.000000e+00 0.000000e+00
8.186204e-03 0.000000e+00 0.000000e+00
5.579445e-03 0.000000e+00 0.000000e+00
4.259772e-03 0.000000e+00 0.000000e+00
5.034846e-03 0.000000e+00 0.000000e+00
8.291959e-03 0.000000e+00 0.000000e+00
1.417094e-02 0.000000e+00 0.000000e+00
2.235966e-02 0.000000e+00 0.000000e+00
3.224332e-02 0.000000e+00 0.000000e+00
4.313568e-02 0.000000e+00 0.000000e+00
5.422986e-02 0.000000e+00 0.000000e+00
6.482719e-02 0.000000e+00 0.000000e+00
7.429463e-02 0.000000e+00 0.000000e+00
8.221263e-02 0.000000e+00 0.000000e+00
8.830670e-02 0.000000e+00 0.000000e+00
9.257016e-02 0.000000e+00 0.000000e+00
9.515372e-02 0.000000e+00 0.000000e+00
9.642577e-02 0.000000e+00 0.000000e+00
9.678583e-02 0.000000e+00 0.000000e+00
9.675894e-02 0.000000e+00 0.000000e+00
9.669876e-02 0.000000e+00 0.000000e+00
9.690207e-02 0.000000e+00 0.000000e+00
9.738509e-02 0.000000e+00 0.000000e+00
9.800701e-02 0.000000e+00 0.000000e+00
9.847454e-02 0.000000e+00 0.000000e+00
9.819546e-02 0.000000e+00 0.000000e+00
9.668868e-02 0.000000e+00 0.000000e+00
9.368890e-02 0.000000e+00 0.000000e+00
8.826170e-02 0.000000e+00 0.000000e+00
8.160246e-02 0.000000e+00 0.000000e+00
6.749382e-02 0.000000e+00 0.000000e+00
5.068909e-02 0.000000e+00 0.000000e+00
0.000000e+00 0.000000e+00 0.000000e+00
0.000000e+00 7.499398e-15 0.000000e+00
1.060012e-02 -2.476474e-13 0.000000e+00
1.544078e-02 -1.001244e-13 0.000000e+00
1.783893e-02 2.773502e-14 0.000000e+00
1.835505e-02 3.537340e-14 0.000000e+00
1.777987e-02 -1.439725e-14 0.000000e+00
1.631292e-02 -3.235300e-14 0.000000e+00
1.409917e-02 1.175456e-13 0.000000e+00
1.125806e-02 -5.485750e-14 0.000000e+00
8.186204e-03 5.691171e-14 0.000000e+00
5.579445e-03 7.470463e-14 0.000000e+00
4.259772e-03 4.567553e-14 0.000000e+00
5.034846e-03 1.167201e-14 0.000000e+00
8.291959e-03 5.072069e-14 0.000000e+00
1.417094e-02 6.590597e-14 0.000000e+00
2.235966e-02 1.373389e-14 0.000000e+00
3.224332e-02 2.214298e-14 0.000000e+00
4.313568e-02 3.423122e-14 0.000000e+00
5.422986e-02 2.633069e-14 0.000000e+00
6.482719e-02 -1.058245e-14 0.000000e+00
7.429463e-02 3.676123e-14 0.000000e+00
8.221263e-02 6.043971e-14 0.000000e+00
8.830670e-02 9.224699e-14 0.000000e+00
9.257016e-02 5.878414e-14 0.000000e+00
9.515372e-02 7.592975e-14 0.000000e+00
9.642577e-02 5.048237e-14 0.000000e+00
9.678583e-02 5.090592e-14 0.000000e+00
9.675894e-02 9.337904e-14 0.000000e+00
9.669876e-02 7.555257e-14 0.000000e+00
9.690207e-02 1.234442e-13 0.000000e+00
9.738509e-02 1.153221e-13 0.000000e+00
9.800701e-02 2.278753e-13 0.000000e+00
9.847454e-02 2.468172e-13 0.000000e+00
9.819546e-02 4.686915e-13 0.000000e+00
9.668868e-02 3.809010e-13 0.000000e+00
9.368890e-02 3.409827e-13 0.000000e+00
8.826170e-02 3.016866e-13 0.000000e+00
8.160246e-02 2.193582e-13 0.000000e+00
6.749382e-02 1.332888e-14 0.000000e+00
5.068909e-02 4.371123e-14 0.000000e+00
0.000000e+00 -8.539761e-14 0.000000e+00
0.000000e+00 -2.597194e-13 0.000000e+00
1.060012e-02 5.287262e-14 0.000000e+00
1.544078e-02 -1.257416e-13 0.000000e+00
1.783893e-02 -3.490896e-14 0.000000e+00
1.835505e-02 -6.323528e-14 0.000000e+00
1.777987e-02 -1.167928e-13 0.000000e+00
1.631292e-02 4.766342e-14 0.000000e+00
1.409917e-02 -1.637442e-14 0.000000e+00
1.125806e-02 -4.698613e-14 0.000000e+00
8.186204e-03 1.718494e-14 0.000000e+00
5.579445e-03 1.022712e-13 0.000000e+00
4.259772e-03 -3.906252e-14 0.000000e+00
5.034846e-03 7.032052e-14 0.000000e+00
8.291959e-03 2.899798e-14 0.000000e+00
1.417094e-02 7.355536e-14 0.000000e+00
2.235966e-02 4.197344e-14 0.000000e+00
3.224332e-02 4.714021e-14 0.000000e+00
4.313568e-02 4.800872e-14 0.000000e+00
5.422986e-02 9.162347e-14 0.000000e+00
6.482719e-02 -3.405358e-14 0.000000e+00
7.429463e-02 1.031327e-13 0.000000e+00
8.221263e-02 5.555679e-14 0.000000e+00
8.830670e-02 1.217348e-13 0.000000e+00
9.257016e-02 1.010471e-13 0.000000e+00
9.515372e-02 4.432884e-14 0.000000e+00
9.642577e-02 1.238558e-13 0.000000e+00
9.678583e-02 8.346613e-14 0.000000e+00
9.675894e-02 1.426311e-13 0.000000e+00
9.669876e-02 1.210255e-13 0.000000e+00
9.690207e-02 1.792062e-13 0.000000e+00
9.738509e-02 1.808142e-13 0.000000e+00
9.800701e-02 2.480361e-13 0.000000e+00
9.847454e-02 3.865433e-13 0.000000e+00
9.819546e-02 5.332780e-13 0.000000e+00
9.668868e-02 5.537182e-13 0.000000e+00
9.368890e-02 4.958241e-13 0.000000e+00
8.826170e-02 5.326647e-13 0.000000e+00
8.160246e-02 2.719303e-13 0.000000e+00
6.749382e-02 1.957745e-13 0.000000e+00
5.068909e-02 2.215407e-14 0.000000e+00
0.000000e+00 -1.948649e-13 0.000000e+00
0.000000e+00 -5.824751e-14 0.000000e+00
1.060012e-02 -1.057204e-15 0.000000e+00
1.544078e-02 -3.835781e-14 0.000000e+00
1.783893e-02 -1.122898e-13 0.000000e+00
1.835505e-02 -4.396966e-14 0.000000e+00
1.777987e-02 -1.114105e-13 0.000000e+00
1.631292e-02 3.074335e-14 0.000000e+00
1.409917e-02 -2.380950e-14 0.000000e+00
1.125806e-02 -3.546445e-14 0.000000e+00
8.186204e-03 -4.597634e-15 0.000000e+00
5.579445e-03 5.343657e-14 0.000000e+00
4.259772e-03 -9.682186e-14 0.000000e+00
5.034846e-03 8.039320e-14 0.000000e+00
8.291959e-03 3.006357e-14 0.000000e+00
1.417094e-02 1.288756e-14 0.000000e+00
2.235966e-02 1.232090e-13 0.000000e+00
3.224332e-02 6.552169e-14 0.000000e+00
4.313568e-02 1.250655e-13 0.000000e+00
5.422986e-02 1.180188e-13 0.000000e+00
6.482719e-02 -6.941824e-14 0.000000e+00
7.429463e-02 1.479746e-13 0.000000e+00
8.221263e-02 3.573024e-15 0.000000e+00
8.830670e-02 1.303409e-13 0.000000e+00
9.257016e-02 9.742711e-14 0.000000e+00
9.515372e-02 2.865659e-14 0.000000e+00
9.642577e-02 1.639349e-13 0.000000e+00
9.678583e-02 6.021091e-14 0.000000e+00
9.675894e-02 1.891752e-13 0.000000e+00
9.669876e-02 1.604911e-13 0.000000e+00
9.690207e-02 1.878564e-13 0.000000e+00
9.738509e-02 1.880731e-13 0.000000e+00
9.800701e-02 2.386541e-13 0.000000e+00
9.847454e-02 3.422084e-13 0.000000e+00
9.819546e-02 4.477411e-13 0.000000e+00
9.668868e-02 4.679588e-13 0.000000e+00
9.368890e-02 5.516734e-13 0.000000e+00
8.826170e-02 5.020253e-13 0.000000e+00
8.160246e-02 3.261217e-13 0.000000e+00
6.749382e-02 2.115279e-13 0.000000e+00
5.068909e-02 9.423814e-14 0.000000e+00
0.000000e+00 -1.904413e-13 0.000000e+00
0.000000e+00 1.232932e-13 0.000000e+00
1.060012e-02 -1.626831e-13 0.000000e+00
1.544078e-02 2.272639e-14 0.000000e+00
1.783893e-02 -1.271427e-13 0.000000e+00
1.835505e-02 8.267820e-14 0.000000e+00
1.777987e-02 -5.020487e-14 0.000000e+00
1.631292e-02 6.612994e-15 0.000000e+00
1.409917e-02 -1.580907e-14 0.000000e+00
1.125806e-02 -8.667514e-14 0.000000e+00
8.186204e-03 -8.137771e-15 0.000000e+00
5.579445e-03 -1.871652e-14 0.000000e+00
4.259772e-03 -6.194082e-14 0.000000e+00
5.034846e-03 5.206815e-14 0.000000e+00
8.291959e-03 3.132421e-14 0.000000e+00
1.417094e-02 4.888494e-14 0.000000e+00
2.235966e-02 4.704989e-14 0.000000e+00
3.224332e-02 6.132589e-14 0.000000e+00
4.313568e-02 5.244376e-14 0.000000e+00
5.422986e-02 7.805388e-14 0.000000e+00
6.482719e-02 -4.953099e-14 0.000000e+00
7.429463e-02 1.692969e-13 0.000000e+00
8.221263e-02 -7.568839e-14 0.000000e+00
8.830670e-02 1.886789e-13 0.000000e+00
9.257016e-02 5.851431e-14 0.000000e+00
9.515372e-02 4.561014e-14 0.000000e+00
9.642577e-02 1.522849e-13 0.000000e+00
9.678583e-02 6.667028e-14 0.000000e+00
9.675894e-02 1.881319e-13 0.000000e+00
9.669876e-02 1.514115e-13 0.000000e+00
9.690207e-02 1.908970e-13 0.000000e+00
9.738509e-02 1.627425e-13 0.000000e+00
9.800701e-02 2.454524e-13 0.000000e+00
9.847454e-02 2.710268e-13 0.000000e+00
9.819546e-02 3.987720e-13 0.000000e+00
9.668868e-02 3.515751e-13 0.000000e+00
9.368890e-02 4.762583e-13 0.000000e+00
8.826170e-02 3.849096e-13 0.000000e+00
8.160246e-02 2.912109e-13 0.000000e+00
6.749382e-02 2.298573e-13 0.000000e+00
5.068909e-02 3.623590e-14 0.000000e+00
0.000000e+00 -1.217219e-13 0.000000e+00
0.000000e+00 -1.955526e-13 0.000000e+00
1.060012e-02 4.947112e-14 0.000000e+00
1.544078e-02 -5.190815e-14 0.000000e+00
1.783893e-02 -3.283206e-14 0.000000e+00
1.835505e-02 -2.650042e-14 0.000000e+00
1.777987e-02 -4.106141e-14 0.000000e+00
1.631292e-02 3.405673e-14 0.000000e+00
1.409917e-02 -5.149895e-14 0.000000e+00
1.125806e-02 -5.133314e-14 0.000000e+00
8.186204e-03 -3.671966e-14 0.000000e+00
5.579445e-03 -1.989904e-14 0.000000e+00
4.259772e-03 -5.840457e-14 0.000000e+00
5.034846e-03 6.642857e-14 0.000000e+00
8.291959e-03 -2.377691e-14 0.000000e+00
1.417094e-02 -8.507565e-15 0.000000e+00
2.235966e-02 1.967015e-14 0.000000e+00
3.224332e-02 -3.542237e-14 0.000000e+00
4.313568e-02 9.281096e-15 0.000000e+00
5.422986e-02 -3.872693e-14 0.000000e+00
6.482719e-02 -2.864927e-14 0.000000e+00
7.429463e-02 6.536487e-14 0.000000e+00
8.221263e-02 -4.107461e-14 0.000000e+00
8.830670e-02 1.154531e-13 0.000000e+00
9.257016e-02 5.096952e-14 0.000000e+00
9.515372e-02 4.585359e-14 0.000000e+00
9.642577e-02 9.445111e-14 0.000000e+00
9.678583e-02 7.893130e-14 0.000000e+00
9.675894e-02 9.321207e-14 0.000000e+00
9.669876e-02 6.192758e-14 0.000000e+00
9.690207e-02 1.426161e-13 0.000000e+00
9.738509e-02 1.122423e-13 0.000000e+00
9.800701e-02 1.549376e-13 0.000000e+00
9.847454e-02 1.718739e-13 0.000000e+00
9.819546e-02 3.140737e-13 0.000000e+00
9.668868e-02 1.959727e-13 0.000000e+00
9.368890e-02 3.166206e-13 0.000000e+00
8.826170e-02 1.775623e-13 0.000000e+00
8.160246e-02 1.805272e-13 0.000000e+00
6.749382e-02 9.978780e-14 0.000000e+00
5.068909e-02 6.711316e-14 0.000000e+00
0.000000e+00 -8.307716e-14 0.000000e+00
0.000000e+00 0.000000e+00 0.000000e+00
1.060012e-02 0.000000e+00 0.000000e+00
1.544078e-02 0.000000e+00 0.000000e+00
1.783893e-02 0.000000e+00 0.000000e+00
1.835505e-02 0.000000e+00 0.000000e+00
1.777987e-02 0.000000e+00 0.000000e+00
1.631292e-02 0.000000e+00 0.000000e+00
1.409917e-02 0.000000e+00 0.000000e+00
1.125806e-02 0.000000e+00 0.000000e+00
8.186204e-03 0.000000e+00 0.000000e+00
5.579445e-03 0.000000e+00 0.000000e+00
4.259772e-03 0.000000e+00 0.000000e+00
5.034846e-03 0.000000e+00 0.000000e+00
8.291959e-03 0.000000e+00 0.000000e+00
1.417094e-02 0.000000e+00 0.000000e+00
2.235966e-02 0.000000e+00 0.000000e+00
3.224332e-02 0.000000e+00 0.000000e+00
4.313568e-02 0.000000e+00 0.000000e+00
5.422986e-02 0.000000e+00 0.000000e+00
6.482719e-02 0.000000e+00 0.000000e+00
7.429463e-02 0.000000e+00 0.000000e+00
8.221263e-02 0.000000e+00 0.000000e+00
8.830670e-02 0.000000e+00 0.000000e+00
9.257016e-02 0.000000e+00 0.000000e+00
9.515372e-02 0.000000e+00 0.000000e+00
9.642577e-02 0.000000e+00 0.000000e+00
9.678583e-02 0.000000e+00 0.000000e+00
9.675894e-02 0.000000e+00 0.000000e+00
9.669876e-02 0.000000e+00 0.000000e+00
9.690207e-02 0.000000e+00 0.000000e+00
9.738509e-02 0.000000e+00 0.000000e+00
9.800701e-02 0.000000e+00 0.000000e+00
9.847454e-02 0.000000e+00 0.000000e+00
9.819546e-02 0.000000e+00 0.000000e+00
9.668868e-02 0.000000e+00 0.000000e+00
9.368890e-02 0.000000e+00 0.000000e+00
8.826170e-02 0.000000e+00 0.000000e+00
8.160246e-02 0.000000e+00 0.000000e+00
6.749382e-02 0.000000e+00 0.000000e+00
5.068909e-02 0.000000e+00 0.000000e+00
0.000000e+00 0.000000e+00 0.000000e+00
0.000000e+00 0.000000e+00 -9.303052e-03
-3.214607e-03 0.000000e+00 -6.776770e-03
-5.432834e-03 0.000000e+00 -3.826970e-03
-7.866336e-03 0.000000e+00 -2.525356e-03
-1.082048e-02 0.000000e+00 -1.282315e-03
-1.435821e-02 0.000000e+00 -4.799697e-04
-1.852834e-02 0.000000e+00 2.836927e-04
-2.320049e-02 0.000000e+00 8.793621e-04
-2.806027e-02 0.000000e+00 1.205053e-03
-3.267429e-02 0.000000e+00 9.861379e-04
-3.652198e-02 0.000000e+00 5.858925e-05
-3.901549e-02 0.000000e+00 -1.638905e-03
-3.962797e-02 0.000000e+00 -3.923428e-03
-3.788201e-02 0.000000e+00 -6.478178e-03
-3.373237e-02 0.000000e+00 -8.941513e-03
-2.744860e-02 0.000000e+00 -1.093605e-02
-1.953533e-02 0.000000e+00 -1.228030e-02
-1.071436e-02 0.000000e+00 -1.287016e-02
-1.701371e-03 0.000000e+00 -1.270583e-02
6.827566e-03 0.000000e+00 -1.190343e-02
1.442932e-02 0.000000e+00 -1.062342e-02
2.082033e-02 0.000000e+00 -9.057539e-03
2.594296e-02 0.000000e+00 -7.387058e-03
2.978161e-02 0.000000e+00 -5.784670e-03
3.244889e-02 0.000000e+00 -4.402001e-03
3.409622e-02 0.000000e+00 -3.369242e-03
3.508450e-02 0.000000e+00 -2.763728e-03
3.570423e-02 0.000000e+00 -2.592705e-03
3.638266e-02 0.000000e+00 -2.732251e-03
3.727388e-02 0.000000e+00 -3.071600e-03
3.864298e-02 0.000000e+00 -3.350117e-03
4.028474e-02 0.000000e+00 -3.478909e-03
4.213859e-02 0.000000e+00 -3.138649e-03
4.333733e-02 0.000000e+00 -2.125458e-03
4.348135e-02 0.000000e+00 -8.652670e-04
4.177792e-02 0.000000e+00 1.411241e-03
3.859621e-02 0.000000e+00 2.192081e-03
3.396069e-02 0.000000e+00 7.025411e-03
2.689904e-02 0.000000e+00 8.104984e-03
1.782167e-02 0.000000e+00 2.370877e-02
0.000000e+00 0.000000e+00 4.402612e-02
0.000000e+00 -8.929533e-14 -9.303052e-03
-3.214607e-03 7.058676e-14 -6.776770e-03
-5.432834e-03 -2.441636e-14 -3.826970e-03
-7.866336e-03 4.266922e-15 -2.525356e-03
-1.082048e-02 -7.776267e-15 -1.282315e-03
-1.435821e-02 2.262622e-14 -4.799697e-04
-1.852834e-02 -5.305709e-15 2.836927e-04
-2.320049e-02 -5.000725e-14 8.793621e-04
-2.806027e-02 -5.189829e-14 1.205053e-03
-3.267429e-02 -6.168330e-14 9.861379e-04
-3.652198e-02 -7.209062e-14 5.858925e-05
-3.901549e-02 -4.492559e-14 -1.638905e-03
-3.962797e-02 5.461994e-15 -3.923428e-03
-3.788201e-02 1.771527e-14 -6.478178e-03
-3.373237e-02 6.563472e-14 -8.941513e-03
-2.744860e-02 4.426943e-14 -1.093605e-02
-1.953533e-02 6.908168e-14 -1.228030e-02
-1.071436e-02 9.804913e-14 -1.287016e-02
-1.701371e-03 4.132576e-14 -1.270583e-02
6.827566e-03 7.888515e-15 -1.190343e-02
1.442932e-02 -1.923442e-14 -1.062342e-02
2.082033e-02 -3.128850e-14 -9.057539e-03
2.594296e-02 -8.200664e-14 -7.387058e-03
2.978161e-02 -8.433477e-14 -5.784670e-03
3.244889e-02 3.780367e-14 -4.402001e-03
3.409622e-02 -8.661512e-14 -3.369242e-03
3.508450e-02 -5.361764e-14 -2.763728e-03
3.570423e-02 -2.350282e-13 -2.592705e-03
3.638266e-02 -3.939415e-13 -2.732251e-03
3.727388e-02 -4.704554e-13 -3.071600e-03
3.864298e-02 -5.574557e-13 -3.350117e-03
4.028474e-02 -5.470780e-13 -3.478909e-03
4.213859e-02 -5.672584e-13 -3.138649e-03
4.333733e-02 -2.265923e-13 -2.125458e-03
4.348135e-02 -1.626084e-13 -8.652670e-04
4.177792e-02 2.061491e-14 1.411241e-03
3.859621e-02 -7.574440e-14 2.192081e-03
3.396069e-02 -1.449256e-15 7.025411e-03
2.689904e-02 -3.237420e-14 8.104984e-03
1.782167e-02 2.200518e-13 2.370877e-02
0.000000e+00 -1.166354e-13 4.402612e-02
0.000000e+00 -8.764055e-14 -9.303052e-03
-3.214607e-03 -2.141478e-14 -6.776770e-03
-5.432834e-03 -8.907953e-14 -3.826970e-03
-7.866336e-03 -4.243926e-14 -2.525356e-03
-1.082048e-02 -1.588846e-14 -1.282315e-03
-1.435821e-02 1.659920e-14 -4.799697e-04
-1.852834e-02 -5.172970e-15 2.836927e-04
-2.320049e-02 -1.659095e-13 8.793621e-04
-2.806027e-02 1.658093e-14 1.205053e-03
-3.267429e-02 -1.212068e-13 9.861379e-04
-3.652198e-02 -8.679798e-14 5.858925e-05
-3.901549e-02 -4.179117e-14 -1.638905e-03
-3.962797e-02 1.271044e-14 -3.923428e-03
-3.788201e-02 -6.296856e-14 -6.478178e-03
-3.373237e-02 1.231979e-13 -8.941513e-03
-2.744860e-02 1.735500e-14 -1.093605e-02
-1.953533e-02 7.094066e-14 -1.228030e-02
-1.071436e-02 1.000553e-13 -1.287016e-02
-1.701371e-03 2.815994e-14 -1.270583e-02
6.827566e-03 2.518282e-14 -1.190343e-02
1.442932e-02 -4.603423e-15 -1.062342e-02
2.082033e-02 -8.540950e-14 -9.057539e-03
2.594296e-02 -1.033283e-13 -7.387058e-03
2.978161e-02 -1.740866e-13 -5.784670e-03
3.244889e-02 2.644175e-14 -4.402001e-03
3.409622e-02 -1.864129e-14 -3.369242e-03
3.508450e-02 -1.295654e-13 -2.763728e-03
3.570423e-02 -2.121568e-13 -2.592705e-03
3.638266e-02 -4.211118e-13 -2.732251e-03
3.727388e-02 -4.005944e-13 -3.071600e-03
3.864298e-02 -6.547877e-13 -3.350117e-03
4.028474e-02 -5.030101e-13 -3.478909e-03
4.213859e-02 -5.662887e-13 -3.138649e-03
4.333733e-02 -2.452067e-13 -2.125458e-03
4.348135e-02 -8.284029e-14 -8.652670e-04
4.177792e-02 -2.849546e-14 1.411241e-03
3.859621e-02 -1.250714e-13 2.192081e-03
3.396069e-02 -3.987745e-14 7.025411e-03
2.689904e-02 1.876275e-14 8.104984e-03
1.782167e-02 2.243588e-13 2.370877e-02
0.000000e+00 -8.960753e-14 4.402612e-02
0.000000e+00 -2.332192e-14 -9.303052e-03
-3.214607e-03 -4.110836e-14 -6.776770e-03
-5.432834e-03 -8.430499e-14 -3.826970e-03
-7.866336e-03 -1.286950e-14 -2.525356e-03
-1.082048e-02 -9.061970e-14 -1.282315e-03
-1.435821e-02 3.354085e-14 -4.799697e-04
-1.852834e-02 -4.905536e-14 2.836927e-04
-2.320049e-02 -1.395104e-13 8.793621e-04
-2.806027e-02 1.957321e-14 1.205053e-03
-3.267429e-02 -1.093248e-13 9.861379e-04
-3.652198e-02 -4.535156e-14 5.858925e-05
-3.901549e-02 -2.656950e-14 -1.638905e-03
-3.962797e-02 5.548124e-14 -3.923428e-03
-3.788201e-02 -1.124591e-13 -6.478178e-03
-3.373237e-02 1.317619e-13 -8.941513e-03
-2.744860e-02 4.024975e-14 -1.093605e-02
-1.953533e-02 4.132049e-14 -1.228030e-02
-1.071436e-02 1.444519e-13 -1.287016e-02
-1.701371e-03 -3.138577e-14 -1.270583e-02
6.827566e-03 7.408072e-14 -1.190343e-02
1.442932e-02 -3.902178e-14 -1.062342e-02
2.082033e-02 -7.106199e-14 -9.057539e-03
2.594296e-02 -1.367326e-13 -7.387058e-03
2.978161e-02 -9.428569e-14 -5.784670e-03
3.244889e-02 -2.033189e-14 -4.402001e-03
3.409622e-02 -1.947315e-14 -3.369242e-03
3.508450e-02 -6.410410e-14 -2.763728e-03
3.570423e-02 -6.072770e-14 -2.592705e-03
3.638266e-02 -2.293725e-13 -2.732251e-03
3.727388e-02 -2.585351e-13 -3.071600e-03
3.864298e-02 -3.104498e-13 -3.350117e-03
4.028474e-02 -1.922601e-13 -3.478909e-03
4.213859e-02 -4.403962e-13 -3.138649e-03
4.333733e-02 -9.530442e-14 -2.125458e-03
4.348135e-02 -4.960954e-14 -8.652670e-04
4.177792e-02 -9.283293e-14 1.411241e-03
3.859621e-02 -8.044130e-14 2.192081e-03
3.396069e-02 2.128740e-14 7.025411e-03
2.689904e-02 -5.398073e-14 8.104984e-03
1.782167e-02 2.467595e-13 2.370877e-02
0.000000e+00 -2.036736e-13 4.402612e-02
0.000000e+00 -1.099703e-13 -9.303052e-03
-3.214607e-03 -7.042742e-14 -6.776770e-03
-5.432834e-03 -6.963894e-15 -3.826970e-03
-7.866336e-03 5.010228e-16 -2.525356e-03
-1.082048e-02 -9.210564e-14 -1.282315e-03
-1.435821e-02 3.109878e-14 -4.799697e-04
-1.852834e-02 -6.547803e-14 2.836927e-04
-2.320049e-02 -1.029354e-13 8.793621e-04
-2.806027e-02 4.153602e-14 1.205053e-03
-3.267429e-02 -2.004927e-14 9.861379e-04
-3.652198e-02 2.351038e-14 5.858925e-05
-3.901549e-02 -3.762934e-15 -1.638905e-03
-3.962797e-02 1.506522e-14 -3.923428e-03
-3.788201e-02 -2.711256e-14 -6.478178e-03
-3.373237e-02 7.814572e-14 -8.941513e-03
-2.744860e-02 2.440421e-14 -1.093605e-02
-1.953533e-02 2.151602e-14 -1.228030e-02
-1.071436e-02 6.707755e-14 -1.287016e-02
-1.701371e-03 6.342012e-14 -1.270583e-02
6.827566e-03 1.681157e-14 -1.190343e-02
1.442932e-02 -7.090725e-14 -1.062342e-02
2.082033e-02 -6.472928e-14 -9.057539e-03
2.594296e-02 -1.015328e-13 -7.387058e-03
2.978161e-02 -1.689386e-13 -5.784670e-03
3.244889e-02 5.162622e-14 -4.402001e-03
3.409622e-02 -3.734677e-14 -3.369242e-03
3.508450e-02 -4.742625e-14 -2.763728e-03
3.570423e-02 -8.056315e-14 -2.592705e-03
3.638266e-02 -2.233275e-13 -2.732251e-03
3.727388e-02 -2.667737e-13 -3.071600e-03
3.864298e-02 -3.282672e-13 -3.350117e-03
4.028474e-02 -2.575970e-13 -3.478909e-03
4.213859e-02 -4.508010e-13 -3.138649e-03
4.333733e-02 -1.362142e-13 -2.125458e-03
4.348135e-02 -9.598963e-14 -8.652670e-04
4.177792e-02 -7.780812e-14 1.411241e-03
3.859621e-02 -5.721383e-14 2.192081e-03
3.396069e-02 3.401811e-14 7.025411e-03
2.689904e-02 -7.863709e-14 8.104984e-03
1.782167e-02 2.659585e-13 2.370877e-02
0.000000e+00 -9.539145e-14 4.402612e-02
0.000000e+00 6.228219e-14 -9.303052e-03
-3.214607e-03 -4.816652e-14 -6.776770e-03
-5.432834e-03 -5.724399e-14 -3.826970e-03
-7.866336e-03 -1.208493e-14 -2.525356e-03
-1.082048e-02 -5.580328e-14 -1.282315e-03
-1.435821e-02 1.483315e-14 -4.799697e-04
-1.852834e-02 -8.557615e-15 2.836927e-04
-2.320049e-02 -1.008492e-13 8.793621e-04