# vtk DataFile Version 3.0
vtk output
ASCII
DATASET UNSTRUCTURED_GRID
POINTS 11767 float
0.000000e+00 0.000000e+00 0.000000e+00
1.460000e-02 0.000000e+00 0.000000e+00
2.920000e-02 0.000000e+00 0.000000e+00
4.380000e-02 0.000000e+00 0.000000e+00
5.840000e-02 0.000000e+00 0.000000e+00
7.300000e-02 0.000000e+00 0.000000e+00
8.760000e-02 0.000000e+00 0.000000e+00
1.022000e-01 0.000000e+00 0.000000e+00
1.168000e-01 0.000000e+00 0.000000e+00
1.314000e-01 0.000000e+00 0.000000e+00
1.460000e-01 0.000000e+00 0.000000e+00
1.606000e-01 0.000000e+00 0.000000e+00
1.752000e-01 0.000000e+00 0.000000e+00
1.898000e-01 0.000000e+00 0.000000e+00
2.044000e-01 0.000000e+00 0.000000e+00
2.190000e-01 0.000000e+00 0.000000e+00
2.336000e-01 0.000000e+00 0.000000e+00
2.482000e-01 0.000000e+00 0.000000e+00
2.628000e-01 0.000000e+00 0.000000e+00
2.774000e-01 0.000000e+00 0.000000e+00
2.920000e-01 0.000000e+00 0.000000e+00
3.066000e-01 0.000000e+00 0.000000e+00
3.212000e-01 0.000000e+00 0.000000e+00
3.358000e-01 0.000000e+00 0.000000e+00
3.504000e-01 0.000000e+00 0.000000e+00
3.650000e-01 0.000000e+00 0.000000e+00
3.796000e-01 0.000000e+00 0.000000e+00
3.942000e-01 0.000000e+00 0.000000e+00
4.088000e-01 0.000000e+00 0.000000e+00
4.234000e-01 0.000000e+00 0.000000e+00
4.380000e-01 0.000000e+00 0.000000e+00
4.526000e-01 0.000000e+00 0.000000e+00
4.672000e-01 0.000000e+00 0.000000e+00
4.818000e-01 0.000000e+00 0.000000e+00
4.964000e-01 0.000000e+00 0.000000e+00
5.110000e-01 0.000000e+00 0.000000e+00
5.256000e-01 0.000000e+00 0.000000e+00
5.402000e-01 0.000000e+00 0.000000e+00
5.548000e-01 0.000000e+00 0.000000e+00
5.694000e-01 0.000000e+00 0.000000e+00
5.840000e-01 0.000000e+00 0.000000e+00
0.000000e+00 1.460000e-02 0.000000e+00
1.460000e-02 1.460000e-02 0.000000e+00
2.920000e-02 1.460000e-02 0.000000e+00
4.380000e-02 1.460000e-02 0.000000e+00
5.840000e-02 1.460000e-02 0.000000e+00
7.300000e-02 1.460000e-02 0.000000e+00
8.760000e-02 1.460000e-02 0.000000e+00
1.022000e-01 1.460000e-02 0.000000e+00
1.168000e-01 1.460000e-02 0.000000e+00
1.314000e-01 1.460000e-02 0.000000e+00
1.460000e-01 1.460000e-02 0.000000e+00
1.606000e-01 1.460000e-02 0.000000e+00
1.752000e-01 1.460000e-02 0.000000e+00
1.898000e-01 1.460000e-02 0.000000e+00
2.044000e-01 1.460000e-02 0.000000e+00
2.190000e-01 1.460000e-02 0.000000e+00
2.336000e-01 1.460000e-02 0.000000e+00
2.482000e-01 1.460000e-02 0.000000e+00
2.628000e-01 1.460000e-02 0.000000e+00
2.774000e-01 1.460000e-02 0.000000e+00
2.920000e-01 1.460000e-02 0.000000e+00
3.066000e-01 1.460000e-02 0.000000e+00
3.212000e-01 1.460000e-02 0.000000e+00
3.358000e-01 1.460000e-02 0.000000e+00
3.504000e-01 1.460000e-02 0.000000e+00
3.650000e-01 1.460000e-02 0.000000e+00
3.796000e-01 1.460000e-02 0.000000e+00
3.942000e-01 1.460000e-02 0.000000e+00
4.088000e-01 1.460000e-02 0.000000e+00
4.234000e-01 1.460000e-02 0.000000e+00
4.380000e-01 1.460000e-02 0.000000e+00
4.526000e-01 1.460000e-02 0.000000e+00
4.672000e-01 1.460000e-02 0.000000e+00
4.818000e-01 1.460000e-02 0.000000e+00
4.964000e-01 1.460000e-02 0.000000e+00
5.110000e-01 1.460000e-02 0.000000e+00
5.256000e-01 1.460000e-02 0.000000e+00
5.402000e-01 1.460000e-02 0.000000e+00
5.548000e-01 1.460000e-02 0.000000e+00
5.694000e-01 1.460000e-02 0.000000e+00
5.840000e-01 1.460000e-02 0.000000e+00
0.000000e+00 2.920000e-02 0.000000e+00
1.460000e-02 2.920000e-02 0.000000e+00
2.920000e-02 2.920000e-02 0.000000e+00
4.380000e-02 2.920000e-02 0.000000e+00
5.840000e-02 2.920000e-02 0.000000e+00
7.300000e-02 2.920000e-02 0.000000e+00
8.760000e-02 2.920000e-02 0.000000e+00
1.022000e-01 2.920000e-02 0.000000e+00
1.168000e-01 2.920000e-02 0.000000e+00
1.314000e-01 2.920000e-02 0.000000e+00
1.460000e-01 2.920000e-02 0.000000e+00
1.606000e-01 2.920000e-02 0.000000e+00
1.752000e-01 2.920000e-02 0.000000e+00
1.898000e-01 2.920000e-02 0.000000e+00
2.044000e-01 2.920000e-02 0.000000e+00
2.190000e-01 2.920000e-02 0.000000e+00
2.336000e-01 2.920000e-02 0.000000e+00
2.482000e-01 2.920000e-02 0.000000e+00
2.628000e-01 2.920000e-02 0.000000e+00
2.774000e-01 2.920000e-02 0.000000e+00
2.920000e-01 2.920000e-02 0.000000e+00
3.066000e-01 2.920000e-02 0.000000e+00
3.212000e-01 2.920000e-02 0.000000e+00
3.358000e-01 2.920000e-02 0.000000e+00
3.504000e-01 2.920000e-02 0.000000e+00
3.650000e-01 2.920000e-02 0.000000e+00
3.796000e-01 2.920000e-02 0.000000e+00
3.942000e-01 2.920000e-02 0.000000e+00
4.088000e-01 2.920000e-02 0.000000e+00
4.234000e-01 2.920000e-02 0.000000e+00
4.380000e-01 2.920000e-02 0.000000e+00
4.526000e-01 2.920000e-02 0.000000e+00
4.672000e-01 2.920000e-02 0.000000e+00
4.818000e-01 2.920000e-02 0.000000e+00
4.964000e-01 2.920000e-02 0.000000e+00
5.110000e-01 2.920000e-02 0.000000e+00
5.256000e-01 2.920000e-02 0.000000e+00
5.402000e-01 2.920000e-02 0.000000e+00
5.548000e-01 2.920000e-02 0.000000e+00
5.694000e-01 2.920000e-02 0.000000e+00
5.840000e-01 2.920000e-02 0.000000e+00
0.000000e+00 4.380000e-02 0.000000e+00
1.460000e-02 4.380000e-02 0.000000e+00
2.920000e-02 4.380000e-02 0.000000e+00
4.380000e-02 4.380000e-02 0.000000e+00
5.840000e-02 4.380000e-02 0.000000e+00
7.300000e-02 4.380000e-02 0.000000e+00
8.760000e-02 4.380000e-02 0.000000e+00
1.022000e-01 4.380000e-02 0.000000e+00
1.168000e-01 4.380000e-02 0.000000e+00
1.314000e-01 4.380000e-02 0.000000e+00
1.460000e-01 4.380000e-02 0.000000e+00
1.606000e-01 4.380000e-02 0.000000e+00
1.752000e-01 4.380000e-02 0.000000e+00
1.898000e-01 4.380000e-02 0.000000e+00
2.044000e-01 4.380000e-02 0.000000e+00
2.190000e-01 4.380000e-02 0.000000e+00
2.336000e-01 4.380000e-02 0.000000e+00
2.482000e-01 4.380000e-02 0.000000e+00
2.628000e-01 4.380000e-02 0.000000e+00
2.774000e-01 4.380000e-02 0.000000e+00
2.920000e-01 4.380000e-02 0.000000e+00
3.066000e-01 4.380000e-02 0.000000e+00
3.212000e-01 4.380000e-02 0.000000e+00
3.358000e-01 4.380000e-02 0.000000e+00
3.504000e-01 4.380000e-02 0.000000e+00
3.650000e-01 4.380000e-02 0.000000e+00
3.796000e-01 4.380000e-02 0.000000e+00
3.942000e-01 4.380000e-02 0.000000e+00
4.088000e-01 4.380000e-02 0.000000e+00
4.234000e-01 4.380000e-02 0.000000e+00
4.380000e-01 4.380000e-02 0.000000e+00
4.526000e-01 4.380000e-02 0.000000e+00
4.672000e-01 4.380000e-02 0.000000e+00
4.818000e-01 4.380000e-02 0.000000e+00
4.964000e-01 4.380000e-02 0.000000e+00
5.110000e-01 4.380000e-02 0.000000e+00
5.256000e-01 4.380000e-02 0.000000e+00
5.402000e-01 4.380000e-02 0.000000e+00
5.548000e-01 4.380000e-02 0.000000e+00
5.694000e-01 4.380000e-02 0.000000e+00
5.840000e-01 4.380000e-02 0.000000e+00
0.000000e+00 5.840000e-02 0.000000e+00
1.460000e-02 5.840000e-02 0.000000e+00
2.920000e-02 5.840000e-02 0.000000e+00
4.380000e-02 5.840000e-02 0.000000e+00
5.840000e-02 5.840000e-02 0.000000e+00
7.300000e-02 5.840000e-02 0.000000e+00
8.760000e-02 5.840000e-02 0.000000e+00
1.022000e-01 5.840000e-02 0.000000e+00
1.168000e-01 5.840000e-02 0.000000e+00
1.314000e-01 5.840000e-02 0.000000e+00
1.460000e-01 5.840000e-02 0.000000e+00
1.606000e-01 5.840000e-02 0.000000e+00
1.752000e-01 5.840000e-02 0.000000e+00
1.898000e-01 5.840000e-02 0.000000e+00
2.044000e-01 5.840000e-02 0.000000e+00
2.190000e-01 5.840000e-02 0.000000e+00
2.336000e-01 5.840000e-02 0.000000e+00
2.482000e-01 5.840000e-02 0.000000e+00
2.628000e-01 5.840000e-02 0.000000e+00
2.774000e-01 5.840000e-02 0.000000e+00
2.920000e-01 5.840000e-02 0.000000e+00
3.066000e-01 5.840000e-02 0.000000e+00
3.212000e-01 5.840000e-02 0.000000e+00
3.358000e-01 5.840000e-02 0.000000e+00
3.504000e-01 5.840000e-02 0.000000e+00
3.650000e-01 5.840000e-02 0.000000e+00
3.796000e-01 5.840000e-02 0.000000e+00
3.942000e-01 5.840000e-02 0.000000e+00
4.088000e-01 5.840000e-02 0.000000e+00
4.234000e-01 5.840000e-02 0.000000e+00
4.380000e-01 5.840000e-02 0.000000e+00
4.526000e-01 5.840000e-02 0.000000e+00
4.672000e-01 5.840000e-02 0.000000e+00
4.818000e-01 5.840000e-02 0.000000e+00
4.964000e-01 5.840000e-02 0.000000e+00
5.110000e-01 5.840000e-02 0.000000e+00
5.256000e-01 5.840000e-02 0.000000e+00
5.402000e-01 5.840000e-02 0.000000e+00
5.548000e-01 5.840000e-02 0.000000e+00
5.694000e-01 5.840000e-02 0.000000e+00
5.840000e-01 5.840000e-02 0.000000e+00
0.000000e+00 7.300000e-02 0.000000e+00
1.460000e-02 7.300000e-02 0.000000e+00
2.920000e-02 7.300000e-02 0.000000e+00
4.380000e-02 7.300000e-02 0.000000e+00
5.840000e-02 7.300000e-02 0.000000e+00
7.300000e-02 7.300000e-02 0.000000e+00
8.760000e-02 7.300000e-02 0.000000e+00
1.022000e-01 7.300000e-02 0.000000e+00
1.168000e-01 7.300000e-02 0.000000e+00
1.314000e-01 7.300000e-02 0.000000e+00
1.460000e-01 7.300000e-02 0.000000e+00
1.606000e-01 7.300000e-02 0.000000e+00
1.752000e-01 7.300000e-02 0.000000e+00
1.898000e-01 7.300000e-02 0.000000e+00
2.044000e-01 7.300000e-02 0.000000e+00
2.190000e-01 7.300000e-02 0.000000e+00
2.336000e-01 7.300000e-02 0.000000e+00
2.482000e-01 7.300000e-02 0.000000e+00
2.628000e-01 7.300000e-02 0.000000e+00
2.774000e-01 7.300000e-02 0.000000e+00
2.920000e-01 7.300000e-02 0.000000e+00
3.066000e-01 7.300000e-02 0.000000e+00
3.212000e-01 7.300000e-02 0.000000e+00
3.358000e-01 7.300000e-02 0.000000e+00
3.504000e-01 7.300000e-02 0.000000e+00
3.650000e-01 7.300000e-02 0.000000e+00
3.796000e-01 7.300000e-02 0.000000e+00
3.942000e-01 7.300000e-02 0.000000e+00
4.088000e-01 7.300000e-02 0.000000e+00
4.234000e-01 7.300000e-02 0.000000e+00
4.380000e-01 7.300000e-02 0.000000e+00
4.526000e-01 7.300000e-02 0.000000e+00
4.672000e-01 7.300000e-02 0.000000e+00
4.818000e-01 7.300000e-02 0.000000e+00
4.964000e-01 7.300000e-02 0.000000e+00
5.110000e-01 7.300000e-02 0.000000e+00
5.256000e-01 7.300000e-02 0.000000e+00
5.402000e-01 7.300000e-02 0.000000e+00
5.548000e-01 7.300000e-02 0.000000e+00
5.694000e-01 7.300000e-02 0.000000e+00
5.840000e-01 7.300000e-02 0.000000e+00
0.000000e+00 8.760000e-02 0.000000e+00
1.460000e-02 8.760000e-02 0.000000e+00
2.920000e-02 8.760000e-02 0.000000e+00
4.380000e-02 8.760000e-02 0.000000e+00
5.840000e-02 8.760000e-02 0.000000e+00
7.300000e-02 8.760000e-02 0.000000e+00
8.760000e-02 8.760000e-02 0.000000e+00
1.022000e-01 8.760000e-02 0.000000e+00
[...]
POINT_DATA 11767
VECTORS Velocity float
0.000000e+00 0.000000e+00 0.000000e+00
7.794814e-03 0.000000e+00 0.000000e+00
9.036922e-03 0.000000e+00 0.000000e+00
8.496187e-03 0.000000e+00 0.000000e+00
6.548641e-03 0.000000e+00 0.000000e+00
4.371404e-03 0.000000e+00 0.000000e+00
2.436397e-03 0.000000e+00 0.000000e+00
1.520599e-03 0.000000e+00 0.000000e+00
2.259686e-03 0.000000e+00 0.000000e+00
5.371302e-03 0.000000e+00 0.000000e+00
1.137052e-02 0.000000e+00 0.000000e+00
2.055882e-02 0.000000e+00 0.000000e+00
3.295027e-02 0.000000e+00 0.000000e+00
4.813312e-02 0.000000e+00 0.000000e+00
6.524794e-02 0.000000e+00 0.000000e+00
8.349886e-02 0.000000e+00 0.000000e+00
1.021642e-01 0.000000e+00 0.000000e+00
1.205604e-01 0.000000e+00 0.000000e+00
1.380157e-01 0.000000e+00 0.000000e+00
1.536940e-01 0.000000e+00 0.000000e+00
1.668120e-01 0.000000e+00 0.000000e+00
1.769027e-01 0.000000e+00 0.000000e+00
1.839313e-01 0.000000e+00 0.000000e+00
1.882857e-01 0.000000e+00 0.000000e+00
1.905351e-01 0.000000e+00 0.000000e+00
1.911295e-01 0.000000e+00 0.000000e+00
1.903525e-01 0.000000e+00 0.000000e+00
1.884637e-01 0.000000e+00 0.000000e+00
1.856808e-01 0.000000e+00 0.000000e+00
1.821698e-01 0.000000e+00 0.000000e+00
1.780484e-01 0.000000e+00 0.000000e+00
1.732016e-01 0.000000e+00 0.000000e+00
1.673926e-01 0.000000e+00 0.000000e+00
1.600372e-01 0.000000e+00 0.000000e+00
1.504144e-01 0.000000e+00 0.000000e+00
1.381461e-01 0.000000e+00 0.000000e+00
1.217691e-01 0.000000e+00 0.000000e+00
1.030747e-01 0.000000e+00 0.000000e+00
7.741313e-02 0.000000e+00 0.000000e+00
5.126879e-02 0.000000e+00 0.000000e+00
0.000000e+00 0.000000e+00 0.000000e+00
0.000000e+00 -5.532284e-14 0.000000e+00
7.794814e-03 2.618795e-14 0.000000e+00
9.036922e-03 1.255725e-14 0.000000e+00
8.496187e-03 4.445486e-15 0.000000e+00
6.548641e-03 6.059700e-16 0.000000e+00
4.371404e-03 -8.544498e-17 0.000000e+00
2.436397e-03 -2.033866e-15 0.000000e+00
1.520599e-03 1.014612e-14 0.000000e+00
2.259686e-03 1.233341e-14 0.000000e+00
5.371302e-03 4.831169e-15 0.000000e+00
1.137052e-02 5.167383e-15 0.000000e+00
2.055882e-02 -1.320862e-14 0.000000e+00
3.295027e-02 2.935937e-14 0.000000e+00
4.813312e-02 -1.688349e-14 0.000000e+00
6.524794e-02 -5.595342e-16 0.000000e+00
8.349886e-02 8.204885e-15 0.000000e+00
1.021642e-01 -1.883732e-14 0.000000e+00
1.205604e-01 -5.065618e-15 0.000000e+00
1.380157e-01 -1.267074e-14 0.000000e+00
1.536940e-01 -1.544577e-14 0.000000e+00
1.668120e-01 -1.495164e-14 0.000000e+00
1.769027e-01 -7.088738e-15 0.000000e+00
1.839313e-01 -8.128386e-15 0.000000e+00
1.882857e-01 -9.247390e-15 0.000000e+00
1.905351e-01 -1.056252e-14 0.000000e+00
1.911295e-01 3.544813e-15 0.000000e+00
1.903525e-01 -2.153052e-14 0.000000e+00
1.884637e-01 -2.557981e-15 0.000000e+00
1.856808e-01 -2.459527e-14 0.000000e+00
1.821698e-01 9.133601e-15 0.000000e+00
1.780484e-01 -2.255253e-14 0.000000e+00
1.732016e-01 1.492931e-14 0.000000e+00
1.673926e-01 -2.972876e-14 0.000000e+00
1.600372e-01 4.446065e-14 0.000000e+00
1.504144e-01 -1.654216e-14 0.000000e+00
1.381461e-01 2.650138e-14 0.000000e+00
1.217691e-01 -2.669213e-14 0.000000e+00
1.030747e-01 2.306996e-14 0.000000e+00
7.741313e-02 -4.149003e-14 0.000000e+00
5.126879e-02 4.428529e-14 0.000000e+00
0.000000e+00 6.371648e-14 0.000000e+00
0.000000e+00 -1.234991e-13 0.000000e+00
7.794814e-03 1.755999e-14 0.000000e+00
9.036922e-03 1.125760e-14 0.000000e+00
8.496187e-03 -1.179589e-14 0.000000e+00
6.548641e-03 -8.513591e-15 0.000000e+00
4.371404e-03 -7.511815e-15 0.000000e+00
2.436397e-03 -4.887079e-15 0.000000e+00
1.520599e-03 -1.244539e-14 0.000000e+00
2.259686e-03 1.646044e-14 0.000000e+00
5.371302e-03 -6.352811e-15 0.000000e+00
1.137052e-02 1.489093e-15 0.000000e+00
2.055882e-02 -7.516678e-15 0.000000e+00
3.295027e-02 2.694030e-14 0.000000e+00
4.813312e-02 -4.628902e-15 0.000000e+00
6.524794e-02 -1.313047e-14 0.000000e+00
8.349886e-02 2.034337e-14 0.000000e+00
1.021642e-01 -1.906486e-14 0.000000e+00
1.205604e-01 6.744654e-15 0.000000e+00
1.380157e-01 -1.121711e-14 0.000000e+00
1.536940e-01 -2.340886e-14 0.000000e+00
1.668120e-01 -1.071355e-14 0.000000e+00
1.769027e-01 -1.818487e-14 0.000000e+00
1.839313e-01 -1.741788e-14 0.000000e+00
1.882857e-01 -2.296527e-15 0.000000e+00
1.905351e-01 -1.369220e-14 0.000000e+00
1.911295e-01 -2.666623e-15 0.000000e+00
1.903525e-01 -2.569925e-14 0.000000e+00
1.884637e-01 7.810317e-15 0.000000e+00
1.856808e-01 -3.301456e-14 0.000000e+00
1.821698e-01 1.038579e-14 0.000000e+00
1.780484e-01 -2.191758e-14 0.000000e+00
1.732016e-01 1.679678e-14 0.000000e+00
1.673926e-01 -2.866739e-14 0.000000e+00
1.600372e-01 2.963382e-14 0.000000e+00
1.504144e-01 -9.887663e-16 0.000000e+00
1.381461e-01 4.518365e-15 0.000000e+00
1.217691e-01 -1.893747e-16 0.000000e+00
1.030747e-01 -5.148622e-15 0.000000e+00
7.741313e-02 2.201362e-15 0.000000e+00
5.126879e-02 5.880118e-15 0.000000e+00
0.000000e+00 3.781657e-14 0.000000e+00
0.000000e+00 -8.738248e-14 0.000000e+00
7.794814e-03 3.760491e-14 0.000000e+00
9.036922e-03 1.325099e-14 0.000000e+00
8.496187e-03 -2.454862e-14 0.000000e+00
6.548641e-03 -1.909026e-14 0.000000e+00
4.371404e-03 -6.836702e-15 0.000000e+00
2.436397e-03 -1.841083e-14 0.000000e+00
1.520599e-03 -1.675997e-14 0.000000e+00
2.259686e-03 -3.400188e-15 0.000000e+00
5.371302e-03 -1.040023e-14 0.000000e+00
1.137052e-02 -1.134688e-14 0.000000e+00
2.055882e-02 -2.198648e-14 0.000000e+00
3.295027e-02 3.242987e-14 0.000000e+00
4.813312e-02 -1.285911e-14 0.000000e+00
6.524794e-02 -4.383028e-16 0.000000e+00
8.349886e-02 2.008653e-14 0.000000e+00
1.021642e-01 -8.266598e-15 0.000000e+00
1.205604e-01 6.479339e-15 0.000000e+00
1.380157e-01 -6.133745e-15 0.000000e+00
1.536940e-01 -9.873424e-15 0.000000e+00
1.668120e-01 -9.707575e-15 0.000000e+00
1.769027e-01 -1.040725e-14 0.000000e+00
1.839313e-01 -1.616242e-14 0.000000e+00
1.882857e-01 -1.584247e-15 0.000000e+00
1.905351e-01 -1.828378e-14 0.000000e+00
1.911295e-01 1.137127e-14 0.000000e+00
1.903525e-01 -2.459927e-14 0.000000e+00
1.884637e-01 1.288091e-14 0.000000e+00
1.856808e-01 -2.935301e-14 0.000000e+00
1.821698e-01 1.551041e-14 0.000000e+00
1.780484e-01 -1.628353e-14 0.000000e+00
1.732016e-01 1.148805e-14 0.000000e+00
1.673926e-01 -2.021076e-14 0.000000e+00
1.600372e-01 4.594124e-14 0.000000e+00
1.504144e-01 4.682724e-16 0.000000e+00
1.381461e-01 2.849820e-14 0.000000e+00
1.217691e-01 -1.807181e-14 0.000000e+00
1.030747e-01 1.061571e-14 0.000000e+00
7.741313e-02 -1.635359e-14 0.000000e+00
5.126879e-02 4.210490e-14 0.000000e+00
0.000000e+00 1.814731e-15 0.000000e+00
0.000000e+00 -9.071876e-14 0.000000e+00
7.794814e-03 9.309136e-15 0.000000e+00
9.036922e-03 2.033454e-14 0.000000e+00
8.496187e-03 -4.064128e-14 0.000000e+00
6.548641e-03 -8.441811e-15 0.000000e+00
4.371404e-03 -2.644174e-14 0.000000e+00
2.436397e-03 1.358675e-15 0.000000e+00
1.520599e-03 -2.299625e-14 0.000000e+00
2.259686e-03 1.610734e-14 0.000000e+00
5.371302e-03 -1.325939e-14 0.000000e+00
1.137052e-02 1.064190e-14 0.000000e+00
2.055882e-02 -1.981935e-14 0.000000e+00
3.295027e-02 4.129651e-14 0.000000e+00
4.813312e-02 -1.023868e-14 0.000000e+00
6.524794e-02 -1.894372e-15 0.000000e+00
8.349886e-02 1.243643e-14 0.000000e+00
1.021642e-01 -1.837719e-14 0.000000e+00
1.205604e-01 8.100535e-15 0.000000e+00
1.380157e-01 -4.200698e-15 0.000000e+00
1.536940e-01 -2.061114e-14 0.000000e+00
1.668120e-01 -2.080288e-16 0.000000e+00
1.769027e-01 -1.417608e-14 0.000000e+00
1.839313e-01 -1.242197e-14 0.000000e+00
1.882857e-01 2.091634e-15 0.000000e+00
1.905351e-01 -1.406759e-14 0.000000e+00
1.911295e-01 8.090834e-15 0.000000e+00
1.903525e-01 -2.700445e-14 0.000000e+00
1.884637e-01 1.503877e-14 0.000000e+00
1.856808e-01 -2.602204e-14 0.000000e+00
1.821698e-01 1.622218e-14 0.000000e+00
1.780484e-01 -2.545237e-14 0.000000e+00
1.732016e-01 2.053123e-14 0.000000e+00
1.673926e-01 -2.472875e-14 0.000000e+00
1.600372e-01 3.916718e-14 0.000000e+00
1.504144e-01 7.893109e-15 0.000000e+00
1.381461e-01 5.968211e-15 0.000000e+00
1.217691e-01 -1.093245e-14 0.000000e+00
1.030747e-01 -3.188120e-15 0.000000e+00
7.741313e-02 9.376867e-15 0.000000e+00
5.126879e-02 7.872626e-15 0.000000e+00
0.000000e+00 -1.973110e-14 0.000000e+00
0.000000e+00 -1.033017e-13 0.000000e+00
7.794814e-03 -2.991963e-14 0.000000e+00
9.036922e-03 -3.195299e-14 0.000000e+00
8.496187e-03 -1.941746e-14 0.000000e+00
6.548641e-03 -1.221193e-14 0.000000e+00
4.371404e-03 -1.198558e-14 0.000000e+00
2.436397e-03 -1.480943e-14 0.000000e+00
1.520599e-03 8.385626e-15 0.000000e+00
2.259686e-03 -3.910211e-16 0.000000e+00
5.371302e-03 2.662009e-15 0.000000e+00
1.137052e-02 -2.321825e-15 0.000000e+00
2.055882e-02 -5.157552e-15 0.000000e+00
3.295027e-02 1.510222e-14 0.000000e+00
4.813312e-02 -1.136571e-14 0.000000e+00
6.524794e-02 -1.632432e-14 0.000000e+00
8.349886e-02 1.304591e-14 0.000000e+00
1.021642e-01 -1.565100e-14 0.000000e+00
1.205604e-01 4.868491e-15 0.000000e+00
1.380157e-01 -9.450205e-15 0.000000e+00
1.536940e-01 -1.388043e-14 0.000000e+00
1.668120e-01 -6.215672e-15 0.000000e+00
1.769027e-01 -8.192179e-15 0.000000e+00
1.839313e-01 -2.058842e-14 0.000000e+00
1.882857e-01 3.664034e-15 0.000000e+00
1.905351e-01 -2.162259e-14 0.000000e+00
1.911295e-01 9.990503e-15 0.000000e+00
1.903525e-01 -2.875628e-14 0.000000e+00
1.884637e-01 4.847347e-15 0.000000e+00
1.856808e-01 -3.311702e-14 0.000000e+00
1.821698e-01 4.390503e-15 0.000000e+00
1.780484e-01 -2.553136e-14 0.000000e+00
1.732016e-01 9.551059e-15 0.000000e+00
1.673926e-01 -2.936039e-14 0.000000e+00
1.600372e-01 3.696813e-14 0.000000e+00
1.504144e-01 -2.565608e-14 0.000000e+00
1.381461e-01 3.223098e-14 0.000000e+00
1.217691e-01 -4.202594e-14 0.000000e+00
1.030747e-01 3.273704e-14 0.000000e+00
7.741313e-02 -4.982523e-14 0.000000e+00
5.126879e-02 5.873375e-14 0.000000e+00
0.000000e+00 5.614847e-14 0.000000e+00
0.000000e+00 0.000000e+00 0.000000e+00
7.794814e-03 0.000000e+00 0.000000e+00
9.036922e-03 0.000000e+00 0.000000e+00
8.496187e-03 0.000000e+00 0.000000e+00
6.548641e-03 0.000000e+00 0.000000e+00
4.371404e-03 0.000000e+00 0.000000e+00
2.436397e-03 0.000000e+00 0.000000e+00
1.520599e-03 0.000000e+00 0.000000e+00
2.259686e-03 0.000000e+00 0.000000e+00
5.371302e-03 0.000000e+00 0.000000e+00
1.137052e-02 0.000000e+00 0.000000e+00
2.055882e-02 0.000000e+00 0.000000e+00
3.295027e-02 0.000000e+00 0.000000e+00
4.813312e-02 0.000000e+00 0.000000e+00
6.524794e-02 0.000000e+00 0.000000e+00
8.349886e-02 0.000000e+00 0.000000e+00
1.021642e-01 0.000000e+00 0.000000e+00
1.205604e-01 0.000000e+00 0.000000e+00
1.380157e-01 0.000000e+00 0.000000e+00
1.536940e-01 0.000000e+00 0.000000e+00
1.668120e-01 0.000000e+00 0.000000e+00
1.769027e-01 0.000000e+00 0.000000e+00
1.839313e-01 0.000000e+00 0.000000e+00
1.882857e-01 0.000000e+00 0.000000e+00
1.905351e-01 0.000000e+00 0.000000e+00
1.911295e-01 0.000000e+00 0.000000e+00
1.903525e-01 0.000000e+00 0.000000e+00
1.884637e-01 0.000000e+00 0.000000e+00
1.856808e-01 0.000000e+00 0.000000e+00
1.821698e-01 0.000000e+00 0.000000e+00
1.780484e-01 0.000000e+00 0.000000e+00
1.732016e-01 0.000000e+00 0.000000e+00
1.673926e-01 0.000000e+00 0.000000e+00
1.600372e-01 0.000000e+00 0.000000e+00
1.504144e-01 0.000000e+00 0.000000e+00
1.381461e-01 0.000000e+00 0.000000e+00
1.217691e-01 0.000000e+00 0.000000e+00
1.030747e-01 0.000000e+00 0.000000e+00
7.741313e-02 0.000000e+00 0.000000e+00
5.126879e-02 0.000000e+00 0.000000e+00
0.000000e+00 0.000000e+00 0.000000e+00
0.000000e+00 0.000000e+00 -5.289630e-03
-9.833346e-03 0.000000e+00 -2.525482e-03
-1.743442e-02 0.000000e+00 7.846142e-05
-2.421707e-02 0.000000e+00 5.375027e-04
-3.031296e-02 0.000000e+00 1.003736e-03
-3.576425e-02 0.000000e+00 6.480195e-04
-4.008604e-02 0.000000e+00 -1.726271e-04
-4.294689e-02 0.000000e+00 -1.641610e-03
-4.389928e-02 0.000000e+00 -3.667846e-03
-4.264997e-02 0.000000e+00 -6.269463e-03
-3.864092e-02 0.000000e+00 -9.325137e-03
-3.139729e-02 0.000000e+00 -1.264771e-02
-2.056397e-02 0.000000e+00 -1.591078e-02
-6.231549e-03 0.000000e+00 -1.861679e-02
1.117252e-02 0.000000e+00 -2.054804e-02
3.088778e-02 0.000000e+00 -2.163094e-02
5.155235e-02 0.000000e+00 -2.172447e-02
7.152397e-02 0.000000e+00 -2.081896e-02
8.921397e-02 0.000000e+00 -1.897872e-02
1.037424e-01 0.000000e+00 -1.641117e-02
1.149876e-01 0.000000e+00 -1.345080e-02
1.232496e-01 0.000000e+00 -1.045413e-02
1.289725e-01 0.000000e+00 -7.716617e-03
1.324596e-01 0.000000e+00 -5.414318e-03
1.340099e-01 0.000000e+00 -3.619477e-03
1.341706e-01 0.000000e+00 -2.241470e-03
1.334089e-01 0.000000e+00 -1.170595e-03
1.320672e-01 0.000000e+00 -3.500457e-04
1.303056e-01 0.000000e+00 3.178267e-04
1.281910e-01 0.000000e+00 8.515558e-04
1.257525e-01 0.000000e+00 1.407132e-03
1.228353e-01 0.000000e+00 2.128539e-03
1.192435e-01 0.000000e+00 3.218333e-03
1.144146e-01 0.000000e+00 5.065654e-03
1.078545e-01 0.000000e+00 7.182375e-03
9.893835e-02 0.000000e+00 1.077385e-02
8.692007e-02 0.000000e+00 1.324165e-02
7.190891e-02 0.000000e+00 1.873351e-02
5.239911e-02 0.000000e+00 2.030505e-02
2.953215e-02 0.000000e+00 3.136403e-02
0.000000e+00 0.000000e+00 4.667715e-02
0.000000e+00 7.741720e-15 -5.289630e-03
-9.833346e-03 -1.088499e-14 -2.525482e-03
-1.743442e-02 -2.729940e-14 7.846142e-05
-2.421707e-02 1.923619e-15 5.375027e-04
-3.031296e-02 -1.677728e-14 1.003736e-03
-3.576425e-02 -8.373542e-15 6.480195e-04
-4.008604e-02 -1.223154e-14 -1.726271e-04
-4.294689e-02 -1.848674e-14 -1.641610e-03
-4.389928e-02 -1.974703e-14 -3.667846e-03
-4.264997e-02 -2.319257e-14 -6.269463e-03
-3.864092e-02 -1.393561e-14 -9.325137e-03
-3.139729e-02 -1.986263e-14 -1.264771e-02
-2.056397e-02 -5.849711e-15 -1.591078e-02
-6.231549e-03 -1.593603e-14 -1.861679e-02
1.117252e-02 2.629285e-15 -2.054804e-02
3.088778e-02 8.540739e-15 -2.163094e-02
5.155235e-02 6.281014e-15 -2.172447e-02
7.152397e-02 8.808766e-15 -2.081896e-02
8.921397e-02 1.772946e-14 -1.897872e-02
1.037424e-01 1.063712e-14 -1.641117e-02
1.149876e-01 1.771071e-14 -1.345080e-02
1.232496e-01 1.362357e-14 -1.045413e-02
1.289725e-01 1.133778e-14 -7.716617e-03
1.324596e-01 2.713019e-15 -5.414318e-03
1.340099e-01 9.456918e-16 -3.619477e-03
1.341706e-01 1.202003e-14 -2.241470e-03
1.334089e-01 3.606895e-15 -1.170595e-03
1.320672e-01 2.021902e-14 -3.500457e-04
1.303056e-01 2.033706e-15 3.178267e-04
1.281910e-01 7.336343e-15 8.515558e-04
1.257525e-01 -1.091108e-14 1.407132e-03
1.228353e-01 1.071667e-14 2.128539e-03
1.192435e-01 -2.885974e-14 3.218333e-03
1.144146e-01 -3.234639e-15 5.065654e-03
1.078545e-01 -1.832971e-14 7.182375e-03
9.893835e-02 8.503255e-15 1.077385e-02
8.692007e-02 -1.932330e-14 1.324165e-02
7.190891e-02 2.872488e-14 1.873351e-02
5.239911e-02 -5.507087e-14 2.030505e-02
2.953215e-02 3.693004e-14 3.136403e-02
0.000000e+00 -1.484183e-14 4.667715e-02
0.000000e+00 3.153833e-15 -5.289630e-03
-9.833346e-03 -2.865718e-14 -2.525482e-03
-1.743442e-02 -3.415586e-14 7.846142e-05
-2.421707e-02 1.704060e-15 5.375027e-04
-3.031296e-02 -2.587557e-14 1.003736e-03
-3.576425e-02 -9.112064e-15 6.480195e-04
-4.008604e-02 -1.040706e-14 -1.726271e-04
-4.294689e-02 -1.412919e-14 -1.641610e-03
-4.389928e-02 -1.205889e-14 -3.667846e-03
-4.264997e-02 -2.345937e-14 -6.269463e-03
-3.864092e-02 3.621817e-16 -9.325137e-03
-3.139729e-02 -3.735344e-14 -1.264771e-02
-2.056397e-02 1.310965e-14 -1.591078e-02
-6.231549e-03 -2.463190e-14 -1.861679e-02
1.117252e-02 1.145804e-14 -2.054804e-02
3.088778e-02 2.252203e-15 -2.163094e-02
5.155235e-02 2.070736e-14 -2.172447e-02
7.152397e-02 -5.668482e-15 -2.081896e-02
8.921397e-02 2.990051e-14 -1.897872e-02
1.037424e-01 4.020424e-15 -1.641117e-02
1.149876e-01 2.802111e-14 -1.345080e-02
1.232496e-01 5.128453e-15 -1.045413e-02
1.289725e-01 2.584667e-14 -7.716617e-03
1.324596e-01 -1.032820e-14 -5.414318e-03
1.340099e-01 5.589590e-15 -3.619477e-03
1.341706e-01 1.463747e-14 -2.241470e-03
1.334089e-01 1.017066e-14 -1.170595e-03
1.320672e-01 1.986057e-14 -3.500457e-04
1.303056e-01 3.696943e-15 3.178267e-04
1.281910e-01 1.643864e-14 8.515558e-04
1.257525e-01 -1.286210e-14 1.407132e-03
1.228353e-01 1.074196e-14 2.128539e-03
1.192435e-01 -1.940912e-14 3.218333e-03
1.144146e-01 -2.240249e-14 5.065654e-03
1.078545e-01 -8.204163e-15 7.182375e-03
9.893835e-02 -4.184783e-15 1.077385e-02
8.692007e-02 -7.121181e-15 1.324165e-02
7.190891e-02 1.143208e-14 1.873351e-02
5.239911e-02 -4.545835e-14 2.030505e-02
2.953215e-02 3.216548e-14 3.136403e-02
0.000000e+00 -5.639585e-15 4.667715e-02
0.000000e+00 7.701949e-15 -5.289630e-03
-9.833346e-03 -2.480055e-14 -2.525482e-03
-1.743442e-02 -2.908709e-14 7.846142e-05
-2.421707e-02 5.098255e-15 5.375027e-04
-3.031296e-02 -1.835509e-14 1.003736e-03
-3.576425e-02 -1.354559e-14 6.480195e-04
-4.008604e-02 -9.192617e-15 -1.726271e-04
-4.294689e-02 -7.945801e-15 -1.641610e-03
-4.389928e-02 -1.113128e-15 -3.667846e-03
-4.264997e-02 -2.245905e-14 -6.269463e-03
-3.864092e-02 8.853448e-15 -9.325137e-03
-3.139729e-02 -2.343112e-14 -1.264771e-02
-2.056397e-02 9.869024e-15 -1.591078e-02
-6.231549e-03 -1.934858e-14 -1.861679e-02
1.117252e-02 1.086825e-14 -2.054804e-02
3.088778e-02 7.165811e-15 -2.163094e-02
5.155235e-02 1.178243e-14 -2.172447e-02
7.152397e-02 2.143305e-15 -2.081896e-02
8.921397e-02 1.660410e-14 -1.897872e-02
1.037424e-01 1.345274e-15 -1.641117e-02
1.149876e-01 2.194252e-14 -1.345080e-02
1.232496e-01 3.214531e-15 -1.045413e-02
1.289725e-01 2.245415e-14 -7.716617e-03
1.324596e-01 -5.478060e-15 -5.414318e-03
1.340099e-01 4.217301e-15 -3.619477e-03
1.341706e-01 1.887427e-14 -2.241470e-03
1.334089e-01 5.555876e-15 -1.170595e-03
1.320672e-01 3.054817e-14 -3.500457e-04
1.303056e-01 -3.743391e-16 3.178267e-04
1.281910e-01 2.146489e-14 8.515558e-04
1.257525e-01 -1.540831e-14 1.407132e-03
1.228353e-01 2.476337e-14 2.128539e-03
1.192435e-01 -2.741011e-14 3.218333e-03
1.144146e-01 -1.014551e-14 5.065654e-03
1.078545e-01 -1.431703e-14 7.182375e-03
9.893835e-02 -1.586065e-15 1.077385e-02
8.692007e-02 -2.656283e-14 1.324165e-02
7.190891e-02 1.762810e-14 1.873351e-02
5.239911e-02 -7.649861e-14 2.030505e-02
2.953215e-02 5.113255e-14 3.136403e-02
0.000000e+00 -8.225639e-15 4.667715e-02
0.000000e+00 5.476795e-15 -5.289630e-03
-9.833346e-03 -2.910406e-14 -2.525482e-03
-1.743442e-02 -3.336431e-14 7.846142e-05
-2.421707e-02 1.598887e-15 5.375027e-04
-3.031296e-02 -2.786311e-14 1.003736e-03
-3.576425e-02 -5.894723e-15 6.480195e-04
-4.008604e-02 -7.130319e-15 -1.726271e-04
-4.294689e-02 -1.031967e-14 -1.641610e-03
-4.389928e-02 -1.116552e-14 -3.667846e-03
-4.264997e-02 -1.858683e-14 -6.269463e-03
-3.864092e-02 2.301011e-15 -9.325137e-03
-3.139729e-02 -2.479990e-14 -1.264771e-02
-2.056397e-02 1.024558e-14 -1.591078e-02
-6.231549e-03 -2.706374e-14 -1.861679e-02
1.117252e-02 1.500037e-14 -2.054804e-02
3.088778e-02 1.777684e-15 -2.163094e-02
5.155235e-02 1.799048e-14 -2.172447e-02
7.152397e-02 -5.235510e-15 -2.081896e-02
8.921397e-02 1.814110e-14 -1.897872e-02
1.037424e-01 9.213158e-15 -1.641117e-02
1.149876e-01 1.150992e-14 -1.345080e-02
1.232496e-01 7.237206e-15 -1.045413e-02
1.289725e-01 2.190584e-14 -7.716617e-03
1.324596e-01 -6.111415e-16 -5.414318e-03
1.340099e-01 3.247383e-15 -3.619477e-03
1.341706e-01 2.937504e-14 -2.241470e-03
1.334089e-01 3.317823e-15 -1.170595e-03
1.320672e-01 3.468684e-14 -3.500457e-04
1.303056e-01 7.194680e-16 3.178267e-04
1.281910e-01 1.899116e-14 8.515558e-04
1.257525e-01 -4.337689e-15 1.407132e-03
1.228353e-01 1.244453e-14 2.128539e-03
1.192435e-01 -2.575167e-14 3.218333e-03
1.144146e-01 -1.538810e-14 5.065654e-03
1.078545e-01 -1.636948e-14 7.182375e-03
9.893835e-02 5.588292e-15 1.077385e-02
8.692007e-02 -4.732762e-15 1.324165e-02
7.190891e-02 5.160152e-15 1.873351e-02
5.239911e-02 -5.499242e-14 2.030505e-02
2.953215e-02 1.974389e-14 3.136403e-02
0.000000e+00 -1.833218e-14 4.667715e-02
0.000000e+00 -1.278261e-14 -5.289630e-03
-9.833346e-03 -4.056922e-14 -2.525482e-03
-1.743442e-02 -3.959699e-14 7.846142e-05
-2.421707e-02 -3.671712e-15 5.375027e-04
-3.031296e-02 -2.932997e-14 1.003736e-03
-3.576425e-02 -2.899451e-15 6.480195e-04
-4.008604e-02 -8.043369e-15 -1.726271e-04
-4.294689e-02 -2.049422e-14 -1.641610e-03
-4.389928e-02 -8.918550e-15 -3.667846e-03