# vtk DataFile Version 3.0
vtk output
ASCII
DATASET UNSTRUCTURED_GRID
POINTS 11767 float
0.000000e+00 0.000000e+00 0.000000e+00
1.460000e-02 0.000000e+00 0.000000e+00
2.920000e-02 0.000000e+00 0.000000e+00
4.380000e-02 0.000000e+00 0.000000e+00
5.840000e-02 0.000000e+00 0.000000e+00
7.300000e-02 0.000000e+00 0.000000e+00
8.760000e-02 0.000000e+00 0.000000e+00
1.022000e-01 0.000000e+00 0.000000e+00
1.168000e-01 0.000000e+00 0.000000e+00
1.314000e-01 0.000000e+00 0.000000e+00
1.460000e-01 0.000000e+00 0.000000e+00
1.606000e-01 0.000000e+00 0.000000e+00
1.752000e-01 0.000000e+00 0.000000e+00
1.898000e-01 0.000000e+00 0.000000e+00
2.044000e-01 0.000000e+00 0.000000e+00
2.190000e-01 0.000000e+00 0.000000e+00
2.336000e-01 0.000000e+00 0.000000e+00
2.482000e-01 0.000000e+00 0.000000e+00
2.628000e-01 0.000000e+00 0.000000e+00
2.774000e-01 0.000000e+00 0.000000e+00
2.920000e-01 0.000000e+00 0.000000e+00
3.066000e-01 0.000000e+00 0.000000e+00
3.212000e-01 0.000000e+00 0.000000e+00
3.358000e-01 0.000000e+00 0.000000e+00
3.504000e-01 0.000000e+00 0.000000e+00
3.650000e-01 0.000000e+00 0.000000e+00
3.796000e-01 0.000000e+00 0.000000e+00
3.942000e-01 0.000000e+00 0.000000e+00
4.088000e-01 0.000000e+00 0.000000e+00
4.234000e-01 0.000000e+00 0.000000e+00
4.380000e-01 0.000000e+00 0.000000e+00
4.526000e-01 0.000000e+00 0.000000e+00
4.672000e-01 0.000000e+00 0.000000e+00
4.818000e-01 0.000000e+00 0.000000e+00
4.964000e-01 0.000000e+00 0.000000e+00
5.110000e-01 0.000000e+00 0.000000e+00
5.256000e-01 0.000000e+00 0.000000e+00
5.402000e-01 0.000000e+00 0.000000e+00
5.548000e-01 0.000000e+00 0.000000e+00
5.694000e-01 0.000000e+00 0.000000e+00
5.840000e-01 0.000000e+00 0.000000e+00
0.000000e+00 1.460000e-02 0.000000e+00
1.460000e-02 1.460000e-02 0.000000e+00
2.920000e-02 1.460000e-02 0.000000e+00
4.380000e-02 1.460000e-02 0.000000e+00
5.840000e-02 1.460000e-02 0.000000e+00
7.300000e-02 1.460000e-02 0.000000e+00
8.760000e-02 1.460000e-02 0.000000e+00
1.022000e-01 1.460000e-02 0.000000e+00
1.168000e-01 1.460000e-02 0.000000e+00
1.314000e-01 1.460000e-02 0.000000e+00
1.460000e-01 1.460000e-02 0.000000e+00
1.606000e-01 1.460000e-02 0.000000e+00
1.752000e-01 1.460000e-02 0.000000e+00
1.898000e-01 1.460000e-02 0.000000e+00
2.044000e-01 1.460000e-02 0.000000e+00
2.190000e-01 1.460000e-02 0.000000e+00
2.336000e-01 1.460000e-02 0.000000e+00
2.482000e-01 1.460000e-02 0.000000e+00
2.628000e-01 1.460000e-02 0.000000e+00
2.774000e-01 1.460000e-02 0.000000e+00
2.920000e-01 1.460000e-02 0.000000e+00
3.066000e-01 1.460000e-02 0.000000e+00
3.212000e-01 1.460000e-02 0.000000e+00
3.358000e-01 1.460000e-02 0.000000e+00
3.504000e-01 1.460000e-02 0.000000e+00
3.650000e-01 1.460000e-02 0.000000e+00
3.796000e-01 1.460000e-02 0.000000e+00
3.942000e-01 1.460000e-02 0.000000e+00
4.088000e-01 1.460000e-02 0.000000e+00
4.234000e-01 1.460000e-02 0.000000e+00
4.380000e-01 1.460000e-02 0.000000e+00
4.526000e-01 1.460000e-02 0.000000e+00
4.672000e-01 1.460000e-02 0.000000e+00
4.818000e-01 1.460000e-02 0.000000e+00
4.964000e-01 1.460000e-02 0.000000e+00
5.110000e-01 1.460000e-02 0.000000e+00
5.256000e-01 1.460000e-02 0.000000e+00
5.402000e-01 1.460000e-02 0.000000e+00
5.548000e-01 1.460000e-02 0.000000e+00
5.694000e-01 1.460000e-02 0.000000e+00
5.840000e-01 1.460000e-02 0.000000e+00
0.000000e+00 2.920000e-02 0.000000e+00
1.460000e-02 2.920000e-02 0.000000e+00
2.920000e-02 2.920000e-02 0.000000e+00
4.380000e-02 2.920000e-02 0.000000e+00
5.840000e-02 2.920000e-02 0.000000e+00
7.300000e-02 2.920000e-02 0.000000e+00
8.760000e-02 2.920000e-02 0.000000e+00
1.022000e-01 2.920000e-02 0.000000e+00
1.168000e-01 2.920000e-02 0.000000e+00
1.314000e-01 2.920000e-02 0.000000e+00
1.460000e-01 2.920000e-02 0.000000e+00
1.606000e-01 2.920000e-02 0.000000e+00
1.752000e-01 2.920000e-02 0.000000e+00
1.898000e-01 2.920000e-02 0.000000e+00
2.044000e-01 2.920000e-02 0.000000e+00
2.190000e-01 2.920000e-02 0.000000e+00
2.336000e-01 2.920000e-02 0.000000e+00
2.482000e-01 2.920000e-02 0.000000e+00
2.628000e-01 2.920000e-02 0.000000e+00
2.774000e-01 2.920000e-02 0.000000e+00
2.920000e-01 2.920000e-02 0.000000e+00
3.066000e-01 2.920000e-02 0.000000e+00
3.212000e-01 2.920000e-02 0.000000e+00
3.358000e-01 2.920000e-02 0.000000e+00
3.504000e-01 2.920000e-02 0.000000e+00
3.650000e-01 2.920000e-02 0.000000e+00
3.796000e-01 2.920000e-02 0.000000e+00
3.942000e-01 2.920000e-02 0.000000e+00
4.088000e-01 2.920000e-02 0.000000e+00
4.234000e-01 2.920000e-02 0.000000e+00
4.380000e-01 2.920000e-02 0.000000e+00
4.526000e-01 2.920000e-02 0.000000e+00
4.672000e-01 2.920000e-02 0.000000e+00
4.818000e-01 2.920000e-02 0.000000e+00
4.964000e-01 2.920000e-02 0.000000e+00
5.110000e-01 2.920000e-02 0.000000e+00
5.256000e-01 2.920000e-02 0.000000e+00
5.402000e-01 2.920000e-02 0.000000e+00
5.548000e-01 2.920000e-02 0.000000e+00
5.694000e-01 2.920000e-02 0.000000e+00
5.840000e-01 2.920000e-02 0.000000e+00
0.000000e+00 4.380000e-02 0.000000e+00
1.460000e-02 4.380000e-02 0.000000e+00
2.920000e-02 4.380000e-02 0.000000e+00
4.380000e-02 4.380000e-02 0.000000e+00
5.840000e-02 4.380000e-02 0.000000e+00
7.300000e-02 4.380000e-02 0.000000e+00
8.760000e-02 4.380000e-02 0.000000e+00
1.022000e-01 4.380000e-02 0.000000e+00
1.168000e-01 4.380000e-02 0.000000e+00
1.314000e-01 4.380000e-02 0.000000e+00
1.460000e-01 4.380000e-02 0.000000e+00
1.606000e-01 4.380000e-02 0.000000e+00
1.752000e-01 4.380000e-02 0.000000e+00
1.898000e-01 4.380000e-02 0.000000e+00
2.044000e-01 4.380000e-02 0.000000e+00
2.190000e-01 4.380000e-02 0.000000e+00
2.336000e-01 4.380000e-02 0.000000e+00
2.482000e-01 4.380000e-02 0.000000e+00
2.628000e-01 4.380000e-02 0.000000e+00
2.774000e-01 4.380000e-02 0.000000e+00
2.920000e-01 4.380000e-02 0.000000e+00
3.066000e-01 4.380000e-02 0.000000e+00
3.212000e-01 4.380000e-02 0.000000e+00
3.358000e-01 4.380000e-02 0.000000e+00
3.504000e-01 4.380000e-02 0.000000e+00
3.650000e-01 4.380000e-02 0.000000e+00
3.796000e-01 4.380000e-02 0.000000e+00
3.942000e-01 4.380000e-02 0.000000e+00
4.088000e-01 4.380000e-02 0.000000e+00
4.234000e-01 4.380000e-02 0.000000e+00
4.380000e-01 4.380000e-02 0.000000e+00
4.526000e-01 4.380000e-02 0.000000e+00
4.672000e-01 4.380000e-02 0.000000e+00
4.818000e-01 4.380000e-02 0.000000e+00
4.964000e-01 4.380000e-02 0.000000e+00
5.110000e-01 4.380000e-02 0.000000e+00
5.256000e-01 4.380000e-02 0.000000e+00
5.402000e-01 4.380000e-02 0.000000e+00
5.548000e-01 4.380000e-02 0.000000e+00
5.694000e-01 4.380000e-02 0.000000e+00
5.840000e-01 4.380000e-02 0.000000e+00
0.000000e+00 5.840000e-02 0.000000e+00
1.460000e-02 5.840000e-02 0.000000e+00
2.920000e-02 5.840000e-02 0.000000e+00
4.380000e-02 5.840000e-02 0.000000e+00
5.840000e-02 5.840000e-02 0.000000e+00
7.300000e-02 5.840000e-02 0.000000e+00
8.760000e-02 5.840000e-02 0.000000e+00
1.022000e-01 5.840000e-02 0.000000e+00
1.168000e-01 5.840000e-02 0.000000e+00
1.314000e-01 5.840000e-02 0.000000e+00
1.460000e-01 5.840000e-02 0.000000e+00
1.606000e-01 5.840000e-02 0.000000e+00
1.752000e-01 5.840000e-02 0.000000e+00
1.898000e-01 5.840000e-02 0.000000e+00
2.044000e-01 5.840000e-02 0.000000e+00
2.190000e-01 5.840000e-02 0.000000e+00
2.336000e-01 5.840000e-02 0.000000e+00
2.482000e-01 5.840000e-02 0.000000e+00
2.628000e-01 5.840000e-02 0.000000e+00
2.774000e-01 5.840000e-02 0.000000e+00
2.920000e-01 5.840000e-02 0.000000e+00
3.066000e-01 5.840000e-02 0.000000e+00
3.212000e-01 5.840000e-02 0.000000e+00
3.358000e-01 5.840000e-02 0.000000e+00
3.504000e-01 5.840000e-02 0.000000e+00
3.650000e-01 5.840000e-02 0.000000e+00
3.796000e-01 5.840000e-02 0.000000e+00
3.942000e-01 5.840000e-02 0.000000e+00
4.088000e-01 5.840000e-02 0.000000e+00
4.234000e-01 5.840000e-02 0.000000e+00
4.380000e-01 5.840000e-02 0.000000e+00
4.526000e-01 5.840000e-02 0.000000e+00
4.672000e-01 5.840000e-02 0.000000e+00
4.818000e-01 5.840000e-02 0.000000e+00
4.964000e-01 5.840000e-02 0.000000e+00
5.110000e-01 5.840000e-02 0.000000e+00
5.256000e-01 5.840000e-02 0.000000e+00
5.402000e-01 5.840000e-02 0.000000e+00
5.548000e-01 5.840000e-02 0.000000e+00
5.694000e-01 5.840000e-02 0.000000e+00
5.840000e-01 5.840000e-02 0.000000e+00
0.000000e+00 7.300000e-02 0.000000e+00
1.460000e-02 7.300000e-02 0.000000e+00
2.920000e-02 7.300000e-02 0.000000e+00
4.380000e-02 7.300000e-02 0.000000e+00
5.840000e-02 7.300000e-02 0.000000e+00
7.300000e-02 7.300000e-02 0.000000e+00
8.760000e-02 7.300000e-02 0.000000e+00
1.022000e-01 7.300000e-02 0.000000e+00
1.168000e-01 7.300000e-02 0.000000e+00
1.314000e-01 7.300000e-02 0.000000e+00
1.460000e-01 7.300000e-02 0.000000e+00
1.606000e-01 7.300000e-02 0.000000e+00
1.752000e-01 7.300000e-02 0.000000e+00
1.898000e-01 7.300000e-02 0.000000e+00
2.044000e-01 7.300000e-02 0.000000e+00
2.190000e-01 7.300000e-02 0.000000e+00
2.336000e-01 7.300000e-02 0.000000e+00
2.482000e-01 7.300000e-02 0.000000e+00
2.628000e-01 7.300000e-02 0.000000e+00
2.774000e-01 7.300000e-02 0.000000e+00
2.920000e-01 7.300000e-02 0.000000e+00
3.066000e-01 7.300000e-02 0.000000e+00
3.212000e-01 7.300000e-02 0.000000e+00
3.358000e-01 7.300000e-02 0.000000e+00
3.504000e-01 7.300000e-02 0.000000e+00
3.650000e-01 7.300000e-02 0.000000e+00
3.796000e-01 7.300000e-02 0.000000e+00
3.942000e-01 7.300000e-02 0.000000e+00
4.088000e-01 7.300000e-02 0.000000e+00
4.234000e-01 7.300000e-02 0.000000e+00
4.380000e-01 7.300000e-02 0.000000e+00
4.526000e-01 7.300000e-02 0.000000e+00
4.672000e-01 7.300000e-02 0.000000e+00
4.818000e-01 7.300000e-02 0.000000e+00
4.964000e-01 7.300000e-02 0.000000e+00
5.110000e-01 7.300000e-02 0.000000e+00
5.256000e-01 7.300000e-02 0.000000e+00
5.402000e-01 7.300000e-02 0.000000e+00
5.548000e-01 7.300000e-02 0.000000e+00
5.694000e-01 7.300000e-02 0.000000e+00
5.840000e-01 7.300000e-02 0.000000e+00
0.000000e+00 8.760000e-02 0.000000e+00
1.460000e-02 8.760000e-02 0.000000e+00
2.920000e-02 8.760000e-02 0.000000e+00
4.380000e-02 8.760000e-02 0.000000e+00
5.840000e-02 8.760000e-02 0.000000e+00
7.300000e-02 8.760000e-02 0.000000e+00
8.760000e-02 8.760000e-02 0.000000e+00
1.022000e-01 8.760000e-02 0.000000e+00
[...]
POINT_DATA 11767
VECTORS Velocity float
0.000000e+00 0.000000e+00 0.000000e+00
1.497725e-02 0.000000e+00 0.000000e+00
2.314645e-02 0.000000e+00 0.000000e+00
2.853095e-02 0.000000e+00 0.000000e+00
3.150827e-02 0.000000e+00 0.000000e+00
3.299013e-02 0.000000e+00 0.000000e+00
3.331843e-02 0.000000e+00 0.000000e+00
3.316869e-02 0.000000e+00 0.000000e+00
3.310750e-02 0.000000e+00 0.000000e+00
3.400917e-02 0.000000e+00 0.000000e+00
3.677946e-02 0.000000e+00 0.000000e+00
4.227932e-02 0.000000e+00 0.000000e+00
5.101891e-02 0.000000e+00 0.000000e+00
6.312931e-02 0.000000e+00 0.000000e+00
7.840431e-02 0.000000e+00 0.000000e+00
9.630030e-02 0.000000e+00 0.000000e+00
1.160452e-01 0.000000e+00 0.000000e+00
1.366364e-01 0.000000e+00 0.000000e+00
1.567500e-01 0.000000e+00 0.000000e+00
1.749406e-01 0.000000e+00 0.000000e+00
1.900462e-01 0.000000e+00 0.000000e+00
2.014305e-01 0.000000e+00 0.000000e+00
2.090648e-01 0.000000e+00 0.000000e+00
2.133340e-01 0.000000e+00 0.000000e+00
2.147182e-01 0.000000e+00 0.000000e+00
2.136504e-01 0.000000e+00 0.000000e+00
2.105807e-01 0.000000e+00 0.000000e+00
2.059942e-01 0.000000e+00 0.000000e+00
2.003421e-01 0.000000e+00 0.000000e+00
1.940173e-01 0.000000e+00 0.000000e+00
1.872818e-01 0.000000e+00 0.000000e+00
1.801041e-01 0.000000e+00 0.000000e+00
1.722512e-01 0.000000e+00 0.000000e+00
1.631372e-01 0.000000e+00 0.000000e+00
1.520326e-01 0.000000e+00 0.000000e+00
1.385260e-01 0.000000e+00 0.000000e+00
1.212426e-01 0.000000e+00 0.000000e+00
1.019064e-01 0.000000e+00 0.000000e+00
7.614491e-02 0.000000e+00 0.000000e+00
5.010523e-02 0.000000e+00 0.000000e+00
0.000000e+00 0.000000e+00 0.000000e+00
0.000000e+00 -6.086450e-14 0.000000e+00
1.497725e-02 2.760895e-14 0.000000e+00
2.314645e-02 9.395323e-15 0.000000e+00
2.853095e-02 -1.142625e-15 0.000000e+00
3.150827e-02 -4.984321e-15 0.000000e+00
3.299013e-02 -6.435962e-15 0.000000e+00
3.331843e-02 -7.252996e-15 0.000000e+00
3.316869e-02 -8.113494e-15 0.000000e+00
3.310750e-02 1.936560e-15 0.000000e+00
3.400917e-02 -2.780012e-15 0.000000e+00
3.677946e-02 -5.721991e-16 0.000000e+00
4.227932e-02 -1.851820e-15 0.000000e+00
5.101891e-02 1.888831e-14 0.000000e+00
6.312931e-02 -6.783985e-15 0.000000e+00
7.840431e-02 -3.459702e-15 0.000000e+00
9.630030e-02 6.102506e-15 0.000000e+00
1.160452e-01 -1.248079e-14 0.000000e+00
1.366364e-01 -3.808620e-15 0.000000e+00
1.567500e-01 -1.081889e-14 0.000000e+00
1.749406e-01 -1.546404e-14 0.000000e+00
1.900462e-01 -5.755826e-15 0.000000e+00
2.014305e-01 -8.446455e-15 0.000000e+00
2.090648e-01 -4.207956e-15 0.000000e+00
2.133340e-01 -3.238993e-16 0.000000e+00
2.147182e-01 -1.242401e-14 0.000000e+00
2.136504e-01 -1.950172e-15 0.000000e+00
2.105807e-01 -2.296498e-14 0.000000e+00
2.059942e-01 -7.585799e-15 0.000000e+00
2.003421e-01 -2.525342e-14 0.000000e+00
1.940173e-01 8.845104e-15 0.000000e+00
1.872818e-01 -2.124190e-14 0.000000e+00
1.801041e-01 9.661175e-15 0.000000e+00
1.722512e-01 -2.656265e-14 0.000000e+00
1.631372e-01 4.286460e-14 0.000000e+00
1.520326e-01 -2.145206e-14 0.000000e+00
1.385260e-01 2.739478e-14 0.000000e+00
1.212426e-01 -2.644865e-14 0.000000e+00
1.019064e-01 1.785318e-14 0.000000e+00
7.614491e-02 -3.937936e-14 0.000000e+00
5.010523e-02 3.860715e-14 0.000000e+00
0.000000e+00 7.049551e-14 0.000000e+00
0.000000e+00 -1.214905e-13 0.000000e+00
1.497725e-02 1.833860e-14 0.000000e+00
2.314645e-02 8.900746e-15 0.000000e+00
2.853095e-02 -1.651310e-14 0.000000e+00
3.150827e-02 -1.312084e-14 0.000000e+00
3.299013e-02 -1.282276e-14 0.000000e+00
3.331843e-02 -1.265146e-14 0.000000e+00
3.316869e-02 -2.315623e-14 0.000000e+00
3.310750e-02 1.289030e-15 0.000000e+00
3.400917e-02 -1.714321e-14 0.000000e+00
3.677946e-02 -8.555956e-15 0.000000e+00
4.227932e-02 -1.788466e-14 0.000000e+00
5.101891e-02 1.688242e-14 0.000000e+00
6.312931e-02 -9.684135e-15 0.000000e+00
7.840431e-02 -8.746133e-15 0.000000e+00
9.630030e-02 1.043068e-14 0.000000e+00
1.160452e-01 -1.701060e-14 0.000000e+00
1.366364e-01 -7.923023e-15 0.000000e+00
1.567500e-01 -1.048380e-14 0.000000e+00
1.749406e-01 -2.118408e-14 0.000000e+00
1.900462e-01 -6.101313e-15 0.000000e+00
2.014305e-01 -1.810588e-14 0.000000e+00
2.090648e-01 -8.625113e-15 0.000000e+00
2.133340e-01 -1.818346e-15 0.000000e+00
2.147182e-01 -1.375418e-14 0.000000e+00
2.136504e-01 -5.495118e-15 0.000000e+00
2.105807e-01 -2.741417e-14 0.000000e+00
2.059942e-01 -1.084928e-14 0.000000e+00
2.003421e-01 -3.315526e-14 0.000000e+00
1.940173e-01 1.154046e-14 0.000000e+00
1.872818e-01 -2.423140e-14 0.000000e+00
1.801041e-01 1.486590e-14 0.000000e+00
1.722512e-01 -2.313439e-14 0.000000e+00
1.631372e-01 3.944417e-14 0.000000e+00
1.520326e-01 -1.089388e-14 0.000000e+00
1.385260e-01 8.803191e-15 0.000000e+00
1.212426e-01 -3.061524e-15 0.000000e+00
1.019064e-01 -8.403924e-15 0.000000e+00
7.614491e-02 8.126810e-15 0.000000e+00
5.010523e-02 7.682736e-15 0.000000e+00
0.000000e+00 4.134689e-14 0.000000e+00
0.000000e+00 -8.805205e-14 0.000000e+00
1.497725e-02 3.643673e-14 0.000000e+00
2.314645e-02 2.015856e-14 0.000000e+00
2.853095e-02 -2.343380e-14 0.000000e+00
3.150827e-02 -1.805396e-14 0.000000e+00
3.299013e-02 -1.600304e-14 0.000000e+00
3.331843e-02 -1.843377e-14 0.000000e+00
3.316869e-02 -3.007603e-14 0.000000e+00
3.310750e-02 -2.300870e-15 0.000000e+00
3.400917e-02 -2.651993e-14 0.000000e+00
3.677946e-02 -2.959188e-14 0.000000e+00
4.227932e-02 -2.735956e-14 0.000000e+00
5.101891e-02 9.447442e-15 0.000000e+00
6.312931e-02 -1.791852e-14 0.000000e+00
7.840431e-02 -1.294995e-14 0.000000e+00
9.630030e-02 6.716533e-15 0.000000e+00
1.160452e-01 -2.133050e-14 0.000000e+00
1.366364e-01 -1.854642e-15 0.000000e+00
1.567500e-01 -1.114055e-14 0.000000e+00
1.749406e-01 -2.100770e-14 0.000000e+00
1.900462e-01 -7.073564e-15 0.000000e+00
2.014305e-01 -1.569291e-14 0.000000e+00
2.090648e-01 -9.960579e-15 0.000000e+00
2.133340e-01 1.970691e-15 0.000000e+00
2.147182e-01 -1.595150e-14 0.000000e+00
2.136504e-01 2.778856e-16 0.000000e+00
2.105807e-01 -2.879953e-14 0.000000e+00
2.059942e-01 -9.363232e-16 0.000000e+00
2.003421e-01 -3.197434e-14 0.000000e+00
1.940173e-01 1.965524e-14 0.000000e+00
1.872818e-01 -2.745086e-14 0.000000e+00
1.801041e-01 1.883888e-14 0.000000e+00
1.722512e-01 -2.214030e-14 0.000000e+00
1.631372e-01 5.421381e-14 0.000000e+00
1.520326e-01 -1.265521e-14 0.000000e+00
1.385260e-01 2.099768e-14 0.000000e+00
1.212426e-01 -2.004740e-14 0.000000e+00
1.019064e-01 9.638350e-15 0.000000e+00
7.614491e-02 -1.111393e-14 0.000000e+00
5.010523e-02 3.989351e-14 0.000000e+00
0.000000e+00 8.093250e-15 0.000000e+00
0.000000e+00 -8.970580e-14 0.000000e+00
1.497725e-02 1.505306e-14 0.000000e+00
2.314645e-02 9.392354e-15 0.000000e+00
2.853095e-02 -3.297835e-14 0.000000e+00
3.150827e-02 -1.955427e-14 0.000000e+00
3.299013e-02 -1.997884e-14 0.000000e+00
3.331843e-02 -1.213947e-14 0.000000e+00
3.316869e-02 -2.419956e-14 0.000000e+00
3.310750e-02 1.878949e-16 0.000000e+00
3.400917e-02 -2.150048e-14 0.000000e+00
3.677946e-02 -1.016826e-14 0.000000e+00
4.227932e-02 -2.272305e-14 0.000000e+00
5.101891e-02 1.764097e-14 0.000000e+00
6.312931e-02 -1.447168e-14 0.000000e+00
7.840431e-02 -1.260602e-14 0.000000e+00
9.630030e-02 1.127147e-14 0.000000e+00
1.160452e-01 -2.041302e-14 0.000000e+00
1.366364e-01 -1.692019e-15 0.000000e+00
1.567500e-01 -8.962506e-15 0.000000e+00
1.749406e-01 -1.683684e-14 0.000000e+00
1.900462e-01 -4.349118e-15 0.000000e+00
2.014305e-01 -9.988898e-15 0.000000e+00
2.090648e-01 -1.207558e-14 0.000000e+00
2.133340e-01 5.703789e-15 0.000000e+00
2.147182e-01 -1.521239e-14 0.000000e+00
2.136504e-01 3.555218e-15 0.000000e+00
2.105807e-01 -2.493202e-14 0.000000e+00
2.059942e-01 4.764390e-15 0.000000e+00
2.003421e-01 -3.217043e-14 0.000000e+00
1.940173e-01 1.860004e-14 0.000000e+00
1.872818e-01 -3.051012e-14 0.000000e+00
1.801041e-01 2.243502e-14 0.000000e+00
1.722512e-01 -2.258750e-14 0.000000e+00
1.631372e-01 4.646793e-14 0.000000e+00
1.520326e-01 -1.003544e-14 0.000000e+00
1.385260e-01 8.212081e-15 0.000000e+00
1.212426e-01 -1.047363e-14 0.000000e+00
1.019064e-01 -8.708791e-16 0.000000e+00
7.614491e-02 1.058200e-14 0.000000e+00
5.010523e-02 4.306258e-15 0.000000e+00
0.000000e+00 -1.662163e-14 0.000000e+00
0.000000e+00 -1.073211e-13 0.000000e+00
1.497725e-02 -2.770704e-14 0.000000e+00
2.314645e-02 -2.730898e-14 0.000000e+00
2.853095e-02 -3.166734e-14 0.000000e+00
3.150827e-02 -1.897931e-14 0.000000e+00
3.299013e-02 -1.901184e-14 0.000000e+00
3.331843e-02 -1.242260e-14 0.000000e+00
3.316869e-02 -1.184666e-14 0.000000e+00
3.310750e-02 -2.381491e-15 0.000000e+00
3.400917e-02 -8.884398e-15 0.000000e+00
3.677946e-02 -8.597111e-15 0.000000e+00
4.227932e-02 -6.828543e-15 0.000000e+00
5.101891e-02 1.310632e-14 0.000000e+00
6.312931e-02 -7.762849e-15 0.000000e+00
7.840431e-02 -1.137436e-14 0.000000e+00
9.630030e-02 8.382544e-15 0.000000e+00
1.160452e-01 -2.014587e-14 0.000000e+00
1.366364e-01 2.932560e-15 0.000000e+00
1.567500e-01 -1.331767e-14 0.000000e+00
1.749406e-01 -1.179187e-14 0.000000e+00
1.900462e-01 -8.055527e-15 0.000000e+00
2.014305e-01 -7.448972e-15 0.000000e+00
2.090648e-01 -1.081329e-14 0.000000e+00
2.133340e-01 6.961604e-17 0.000000e+00
2.147182e-01 -1.554625e-14 0.000000e+00
2.136504e-01 -3.255587e-16 0.000000e+00
2.105807e-01 -2.669204e-14 0.000000e+00
2.059942e-01 -4.424496e-15 0.000000e+00
2.003421e-01 -3.014675e-14 0.000000e+00
1.940173e-01 3.084978e-15 0.000000e+00
1.872818e-01 -2.777565e-14 0.000000e+00
1.801041e-01 1.132234e-14 0.000000e+00
1.722512e-01 -2.848019e-14 0.000000e+00
1.631372e-01 3.965842e-14 0.000000e+00
1.520326e-01 -2.628843e-14 0.000000e+00
1.385260e-01 2.565577e-14 0.000000e+00
1.212426e-01 -3.843259e-14 0.000000e+00
1.019064e-01 3.200917e-14 0.000000e+00
7.614491e-02 -4.670853e-14 0.000000e+00
5.010523e-02 5.739580e-14 0.000000e+00
0.000000e+00 5.317645e-14 0.000000e+00
0.000000e+00 0.000000e+00 0.000000e+00
1.497725e-02 0.000000e+00 0.000000e+00
2.314645e-02 0.000000e+00 0.000000e+00
2.853095e-02 0.000000e+00 0.000000e+00
3.150827e-02 0.000000e+00 0.000000e+00
3.299013e-02 0.000000e+00 0.000000e+00
3.331843e-02 0.000000e+00 0.000000e+00
3.316869e-02 0.000000e+00 0.000000e+00
3.310750e-02 0.000000e+00 0.000000e+00
3.400917e-02 0.000000e+00 0.000000e+00
3.677946e-02 0.000000e+00 0.000000e+00
4.227932e-02 0.000000e+00 0.000000e+00
5.101891e-02 0.000000e+00 0.000000e+00
6.312931e-02 0.000000e+00 0.000000e+00
7.840431e-02 0.000000e+00 0.000000e+00
9.630030e-02 0.000000e+00 0.000000e+00
1.160452e-01 0.000000e+00 0.000000e+00
1.366364e-01 0.000000e+00 0.000000e+00
1.567500e-01 0.000000e+00 0.000000e+00
1.749406e-01 0.000000e+00 0.000000e+00
1.900462e-01 0.000000e+00 0.000000e+00
2.014305e-01 0.000000e+00 0.000000e+00
2.090648e-01 0.000000e+00 0.000000e+00
2.133340e-01 0.000000e+00 0.000000e+00
2.147182e-01 0.000000e+00 0.000000e+00
2.136504e-01 0.000000e+00 0.000000e+00
2.105807e-01 0.000000e+00 0.000000e+00
2.059942e-01 0.000000e+00 0.000000e+00
2.003421e-01 0.000000e+00 0.000000e+00
1.940173e-01 0.000000e+00 0.000000e+00
1.872818e-01 0.000000e+00 0.000000e+00
1.801041e-01 0.000000e+00 0.000000e+00
1.722512e-01 0.000000e+00 0.000000e+00
1.631372e-01 0.000000e+00 0.000000e+00
1.520326e-01 0.000000e+00 0.000000e+00
1.385260e-01 0.000000e+00 0.000000e+00
1.212426e-01 0.000000e+00 0.000000e+00
1.019064e-01 0.000000e+00 0.000000e+00
7.614491e-02 0.000000e+00 0.000000e+00
5.010523e-02 0.000000e+00 0.000000e+00
0.000000e+00 0.000000e+00 0.000000e+00
0.000000e+00 0.000000e+00 -1.277188e-02
-1.933849e-03 0.000000e+00 -9.883022e-03
-2.168306e-03 0.000000e+00 -6.632325e-03
-2.303046e-03 0.000000e+00 -5.138541e-03
-3.063522e-03 0.000000e+00 -3.438012e-03
-4.787677e-03 0.000000e+00 -2.310627e-03
-7.177370e-03 0.000000e+00 -1.554774e-03
-9.874356e-03 0.000000e+00 -1.428942e-03
-1.213197e-02 0.000000e+00 -2.008267e-03
-1.327416e-02 0.000000e+00 -3.458137e-03
-1.246544e-02 0.000000e+00 -5.803618e-03
-8.835922e-03 0.000000e+00 -8.933676e-03
-1.499899e-03 0.000000e+00 -1.251834e-02
1.000064e-02 0.000000e+00 -1.611219e-02
2.545737e-02 0.000000e+00 -1.930626e-02
4.421956e-02 0.000000e+00 -2.173268e-02
6.498155e-02 0.000000e+00 -2.305831e-02
8.604326e-02 0.000000e+00 -2.302638e-02
1.057377e-01 0.000000e+00 -2.153585e-02
1.228568e-01 0.000000e+00 -1.883327e-02
1.367734e-01 0.000000e+00 -1.537787e-02
1.472541e-01 0.000000e+00 -1.166510e-02
1.542553e-01 0.000000e+00 -8.110961e-03
1.579067e-01 0.000000e+00 -4.972359e-03
1.587022e-01 0.000000e+00 -2.370154e-03
1.573958e-01 0.000000e+00 -2.843531e-04
1.545582e-01 0.000000e+00 1.308499e-03
1.507029e-01 0.000000e+00 2.432992e-03
1.461945e-01 0.000000e+00 3.169737e-03
1.413287e-01 0.000000e+00 3.578167e-03
1.362982e-01 0.000000e+00 3.886579e-03
1.310564e-01 0.000000e+00 4.317994e-03
1.254109e-01 0.000000e+00 5.125754e-03
1.188132e-01 0.000000e+00 6.683033e-03
1.107582e-01 0.000000e+00 8.552761e-03
1.006035e-01 0.000000e+00 1.184959e-02
8.761283e-02 0.000000e+00 1.406917e-02
7.186991e-02 0.000000e+00 1.914892e-02
5.197118e-02 0.000000e+00 2.042256e-02
2.907800e-02 0.000000e+00 3.088193e-02
0.000000e+00 0.000000e+00 4.552702e-02
0.000000e+00 1.255571e-14 -1.277188e-02
-1.933849e-03 -5.288359e-15 -9.883022e-03
-2.168306e-03 -2.450975e-14 -6.632325e-03
-2.303046e-03 1.020349e-14 -5.138541e-03
-3.063522e-03 -7.594287e-15 -3.438012e-03
-4.787677e-03 -2.976475e-15 -2.310627e-03
-7.177370e-03 -3.985499e-15 -1.554774e-03
-9.874356e-03 -2.166287e-15 -1.428942e-03
-1.213197e-02 -5.209201e-15 -2.008267e-03
-1.327416e-02 -1.973943e-14 -3.458137e-03
-1.246544e-02 -1.557597e-14 -5.803618e-03
-8.835922e-03 -3.580798e-14 -8.933676e-03
-1.499899e-03 -2.193602e-14 -1.251834e-02
1.000064e-02 -3.463299e-14 -1.611219e-02
2.545737e-02 -1.848295e-14 -1.930626e-02
4.421956e-02 -1.253983e-14 -2.173268e-02
6.498155e-02 -1.694091e-14 -2.305831e-02
8.604326e-02 -7.397601e-15 -2.302638e-02
1.057377e-01 1.865839e-16 -2.153585e-02
1.228568e-01 -1.345199e-15 -1.883327e-02
1.367734e-01 1.257253e-15 -1.537787e-02
1.472541e-01 -1.266899e-15 -1.166510e-02
1.542553e-01 -4.125320e-16 -8.110961e-03
1.579067e-01 -1.362489e-14 -4.972359e-03
1.587022e-01 3.870806e-15 -2.370154e-03
1.573958e-01 8.411667e-15 -2.843531e-04
1.545582e-01 1.871300e-15 1.308499e-03
1.507029e-01 1.284676e-14 2.432992e-03
1.461945e-01 -5.760709e-15 3.169737e-03
1.413287e-01 1.990475e-15 3.578167e-03
1.362982e-01 -1.358789e-14 3.886579e-03
1.310564e-01 8.299134e-15 4.317994e-03
1.254109e-01 -3.502102e-14 5.125754e-03
1.188132e-01 -1.883067e-15 6.683033e-03
1.107582e-01 -1.886448e-14 8.552761e-03
1.006035e-01 1.151476e-14 1.184959e-02
8.761283e-02 -1.527154e-14 1.406917e-02
7.186991e-02 3.384721e-14 1.914892e-02
5.197118e-02 -5.812890e-14 2.042256e-02
2.907800e-02 4.355254e-14 3.088193e-02
0.000000e+00 -2.450213e-14 4.552702e-02
0.000000e+00 6.225013e-15 -1.277188e-02
-1.933849e-03 -2.405125e-14 -9.883022e-03
-2.168306e-03 -3.267323e-14 -6.632325e-03
-2.303046e-03 9.825391e-15 -5.138541e-03
-3.063522e-03 -1.481535e-14 -3.438012e-03
-4.787677e-03 -8.575496e-15 -2.310627e-03
-7.177370e-03 3.932562e-15 -1.554774e-03
-9.874356e-03 -9.359423e-15 -1.428942e-03
-1.213197e-02 1.586730e-15 -2.008267e-03
-1.327416e-02 -2.396888e-14 -3.458137e-03
-1.246544e-02 -1.657094e-16 -5.803618e-03
-8.835922e-03 -4.322994e-14 -8.933676e-03
-1.499899e-03 -1.252770e-14 -1.251834e-02
1.000064e-02 -4.598437e-14 -1.611219e-02
2.545737e-02 -2.199269e-14 -1.930626e-02
4.421956e-02 -2.663760e-14 -2.173268e-02
6.498155e-02 -1.515984e-14 -2.305831e-02
8.604326e-02 -2.256866e-14 -2.302638e-02
1.057377e-01 -1.860097e-15 -2.153585e-02
1.228568e-01 -1.526994e-14 -1.883327e-02
1.367734e-01 4.921990e-15 -1.537787e-02
1.472541e-01 -1.177343e-14 -1.166510e-02
1.542553e-01 7.721452e-15 -8.110961e-03
1.579067e-01 -2.536979e-14 -4.972359e-03
1.587022e-01 3.950716e-15 -2.370154e-03
1.573958e-01 9.489545e-15 -2.843531e-04
1.545582e-01 3.448732e-15 1.308499e-03
1.507029e-01 2.099091e-14 2.432992e-03
1.461945e-01 -5.846262e-15 3.169737e-03
1.413287e-01 9.685304e-15 3.578167e-03
1.362982e-01 -1.415199e-14 3.886579e-03
1.310564e-01 6.599895e-15 4.317994e-03
1.254109e-01 -3.141209e-14 5.125754e-03
1.188132e-01 -2.097381e-14 6.683033e-03
1.107582e-01 -1.365184e-15 8.552761e-03
1.006035e-01 -5.350813e-15 1.184959e-02
8.761283e-02 -3.801523e-15 1.406917e-02
7.186991e-02 1.754573e-14 1.914892e-02
5.197118e-02 -5.304507e-14 2.042256e-02
2.907800e-02 3.381001e-14 3.088193e-02
0.000000e+00 -1.349382e-14 4.552702e-02
0.000000e+00 6.635587e-15 -1.277188e-02
-1.933849e-03 -1.661261e-14 -9.883022e-03
-2.168306e-03 -2.947317e-14 -6.632325e-03
-2.303046e-03 4.059660e-15 -5.138541e-03
-3.063522e-03 -1.444324e-14 -3.438012e-03
-4.787677e-03 -1.113555e-14 -2.310627e-03
-7.177370e-03 1.043596e-16 -1.554774e-03
-9.874356e-03 -8.768362e-15 -1.428942e-03
-1.213197e-02 -4.847752e-15 -2.008267e-03
-1.327416e-02 -2.087648e-14 -3.458137e-03
-1.246544e-02 9.269459e-15 -5.803618e-03
-8.835922e-03 -3.233320e-14 -8.933676e-03
-1.499899e-03 -7.199598e-15 -1.251834e-02
1.000064e-02 -4.156316e-14 -1.611219e-02
2.545737e-02 -2.142735e-14 -1.930626e-02
4.421956e-02 -2.421027e-14 -2.173268e-02
6.498155e-02 -1.743263e-14 -2.305831e-02
8.604326e-02 -2.059646e-14 -2.302638e-02
1.057377e-01 -1.120382e-14 -2.153585e-02
1.228568e-01 -1.517914e-14 -1.883327e-02
1.367734e-01 -5.179872e-15 -1.537787e-02
1.472541e-01 -7.959156e-15 -1.166510e-02
1.542553e-01 4.349475e-15 -8.110961e-03
1.579067e-01 -2.026501e-14 -4.972359e-03
1.587022e-01 3.609501e-15 -2.370154e-03
1.573958e-01 1.547955e-14 -2.843531e-04
1.545582e-01 -3.645555e-15 1.308499e-03
1.507029e-01 2.508614e-14 2.432992e-03
1.461945e-01 -1.017770e-14 3.169737e-03
1.413287e-01 1.615975e-14 3.578167e-03
1.362982e-01 -1.230035e-14 3.886579e-03
1.310564e-01 1.322721e-14 4.317994e-03
1.254109e-01 -3.608292e-14 5.125754e-03
1.188132e-01 -9.277549e-15 6.683033e-03
1.107582e-01 -7.857211e-15 8.552761e-03
1.006035e-01 4.547954e-15 1.184959e-02
8.761283e-02 -1.902731e-14 1.406917e-02
7.186991e-02 2.117994e-14 1.914892e-02
5.197118e-02 -8.539654e-14 2.042256e-02
2.907800e-02 5.920242e-14 3.088193e-02
0.000000e+00 -9.910467e-15 4.552702e-02
0.000000e+00 5.016488e-15 -1.277188e-02
-1.933849e-03 -2.572415e-14 -9.883022e-03
-2.168306e-03 -2.803711e-14 -6.632325e-03
-2.303046e-03 3.610926e-15 -5.138541e-03
-3.063522e-03 -1.826845e-14 -3.438012e-03
-4.787677e-03 -1.136528e-14 -2.310627e-03
-7.177370e-03 2.311516e-15 -1.554774e-03
-9.874356e-03 -1.211974e-14 -1.428942e-03
-1.213197e-02 -7.169302e-16 -2.008267e-03
-1.327416e-02 -2.212193e-14 -3.458137e-03
-1.246544e-02 6.439523e-15 -5.803618e-03
-8.835922e-03 -3.791785e-14 -8.933676e-03
-1.499899e-03 -7.056710e-15 -1.251834e-02
1.000064e-02 -4.366273e-14 -1.611219e-02
2.545737e-02 -1.613048e-14 -1.930626e-02
4.421956e-02 -2.703930e-14 -2.173268e-02
6.498155e-02 -1.759639e-14 -2.305831e-02
8.604326e-02 -2.119886e-14 -2.302638e-02
1.057377e-01 -7.159037e-15 -2.153585e-02
1.228568e-01 -1.564126e-14 -1.883327e-02
1.367734e-01 -1.619882e-15 -1.537787e-02
1.472541e-01 -8.272076e-15 -1.166510e-02
1.542553e-01 6.533655e-15 -8.110961e-03
1.579067e-01 -1.541255e-14 -4.972359e-03
1.587022e-01 4.484009e-15 -2.370154e-03
1.573958e-01 2.124827e-14 -2.843531e-04
1.545582e-01 1.282856e-15 1.308499e-03
1.507029e-01 2.969224e-14 2.432992e-03
1.461945e-01 -1.019183e-14 3.169737e-03
1.413287e-01 1.800841e-14 3.578167e-03
1.362982e-01 -9.026914e-15 3.886579e-03
1.310564e-01 1.026005e-14 4.317994e-03
1.254109e-01 -3.618315e-14 5.125754e-03
1.188132e-01 -1.457326e-14 6.683033e-03
1.107582e-01 2.241363e-15 8.552761e-03
1.006035e-01 3.047437e-15 1.184959e-02
8.761283e-02 1.113719e-15 1.406917e-02
7.186991e-02 6.025231e-15 1.914892e-02
5.197118e-02 -5.921759e-14 2.042256e-02
2.907800e-02 2.681964e-14 3.088193e-02
0.000000e+00 -2.503868e-14 4.552702e-02
0.000000e+00 -6.944760e-15 -1.277188e-02
-1.933849e-03 -3.712806e-14 -9.883022e-03
-2.168306e-03 -4.205208e-14 -6.632325e-03
-2.303046e-03 5.441275e-15 -5.138541e-03
-3.063522e-03 -1.794779e-14 -3.438012e-03
-4.787677e-03 -9.595375e-16 -2.310627e-03
-7.177370e-03 -2.196974e-15 -1.554774e-03