# vtk DataFile Version 3.0
vtk output
ASCII
DATASET UNSTRUCTURED_GRID
POINTS 11767 float
0.000000e+00 0.000000e+00 0.000000e+00
1.460000e-02 0.000000e+00 0.000000e+00
2.920000e-02 0.000000e+00 0.000000e+00
4.380000e-02 0.000000e+00 0.000000e+00
5.840000e-02 0.000000e+00 0.000000e+00
7.300000e-02 0.000000e+00 0.000000e+00
8.760000e-02 0.000000e+00 0.000000e+00
1.022000e-01 0.000000e+00 0.000000e+00
1.168000e-01 0.000000e+00 0.000000e+00
1.314000e-01 0.000000e+00 0.000000e+00
1.460000e-01 0.000000e+00 0.000000e+00
1.606000e-01 0.000000e+00 0.000000e+00
1.752000e-01 0.000000e+00 0.000000e+00
1.898000e-01 0.000000e+00 0.000000e+00
2.044000e-01 0.000000e+00 0.000000e+00
2.190000e-01 0.000000e+00 0.000000e+00
2.336000e-01 0.000000e+00 0.000000e+00
2.482000e-01 0.000000e+00 0.000000e+00
2.628000e-01 0.000000e+00 0.000000e+00
2.774000e-01 0.000000e+00 0.000000e+00
2.920000e-01 0.000000e+00 0.000000e+00
3.066000e-01 0.000000e+00 0.000000e+00
3.212000e-01 0.000000e+00 0.000000e+00
3.358000e-01 0.000000e+00 0.000000e+00
3.504000e-01 0.000000e+00 0.000000e+00
3.650000e-01 0.000000e+00 0.000000e+00
3.796000e-01 0.000000e+00 0.000000e+00
3.942000e-01 0.000000e+00 0.000000e+00
4.088000e-01 0.000000e+00 0.000000e+00
4.234000e-01 0.000000e+00 0.000000e+00
4.380000e-01 0.000000e+00 0.000000e+00
4.526000e-01 0.000000e+00 0.000000e+00
4.672000e-01 0.000000e+00 0.000000e+00
4.818000e-01 0.000000e+00 0.000000e+00
4.964000e-01 0.000000e+00 0.000000e+00
5.110000e-01 0.000000e+00 0.000000e+00
5.256000e-01 0.000000e+00 0.000000e+00
5.402000e-01 0.000000e+00 0.000000e+00
5.548000e-01 0.000000e+00 0.000000e+00
5.694000e-01 0.000000e+00 0.000000e+00
5.840000e-01 0.000000e+00 0.000000e+00
0.000000e+00 1.460000e-02 0.000000e+00
1.460000e-02 1.460000e-02 0.000000e+00
2.920000e-02 1.460000e-02 0.000000e+00
4.380000e-02 1.460000e-02 0.000000e+00
5.840000e-02 1.460000e-02 0.000000e+00
7.300000e-02 1.460000e-02 0.000000e+00
8.760000e-02 1.460000e-02 0.000000e+00
1.022000e-01 1.460000e-02 0.000000e+00
1.168000e-01 1.460000e-02 0.000000e+00
1.314000e-01 1.460000e-02 0.000000e+00
1.460000e-01 1.460000e-02 0.000000e+00
1.606000e-01 1.460000e-02 0.000000e+00
1.752000e-01 1.460000e-02 0.000000e+00
1.898000e-01 1.460000e-02 0.000000e+00
2.044000e-01 1.460000e-02 0.000000e+00
2.190000e-01 1.460000e-02 0.000000e+00
2.336000e-01 1.460000e-02 0.000000e+00
2.482000e-01 1.460000e-02 0.000000e+00
2.628000e-01 1.460000e-02 0.000000e+00
2.774000e-01 1.460000e-02 0.000000e+00
2.920000e-01 1.460000e-02 0.000000e+00
3.066000e-01 1.460000e-02 0.000000e+00
3.212000e-01 1.460000e-02 0.000000e+00
3.358000e-01 1.460000e-02 0.000000e+00
3.504000e-01 1.460000e-02 0.000000e+00
3.650000e-01 1.460000e-02 0.000000e+00
3.796000e-01 1.460000e-02 0.000000e+00
3.942000e-01 1.460000e-02 0.000000e+00
4.088000e-01 1.460000e-02 0.000000e+00
4.234000e-01 1.460000e-02 0.000000e+00
4.380000e-01 1.460000e-02 0.000000e+00
4.526000e-01 1.460000e-02 0.000000e+00
4.672000e-01 1.460000e-02 0.000000e+00
4.818000e-01 1.460000e-02 0.000000e+00
4.964000e-01 1.460000e-02 0.000000e+00
5.110000e-01 1.460000e-02 0.000000e+00
5.256000e-01 1.460000e-02 0.000000e+00
5.402000e-01 1.460000e-02 0.000000e+00
5.548000e-01 1.460000e-02 0.000000e+00
5.694000e-01 1.460000e-02 0.000000e+00
5.840000e-01 1.460000e-02 0.000000e+00
0.000000e+00 2.920000e-02 0.000000e+00
1.460000e-02 2.920000e-02 0.000000e+00
2.920000e-02 2.920000e-02 0.000000e+00
4.380000e-02 2.920000e-02 0.000000e+00
5.840000e-02 2.920000e-02 0.000000e+00
7.300000e-02 2.920000e-02 0.000000e+00
8.760000e-02 2.920000e-02 0.000000e+00
1.022000e-01 2.920000e-02 0.000000e+00
1.168000e-01 2.920000e-02 0.000000e+00
1.314000e-01 2.920000e-02 0.000000e+00
1.460000e-01 2.920000e-02 0.000000e+00
1.606000e-01 2.920000e-02 0.000000e+00
1.752000e-01 2.920000e-02 0.000000e+00
1.898000e-01 2.920000e-02 0.000000e+00
2.044000e-01 2.920000e-02 0.000000e+00
2.190000e-01 2.920000e-02 0.000000e+00
2.336000e-01 2.920000e-02 0.000000e+00
2.482000e-01 2.920000e-02 0.000000e+00
2.628000e-01 2.920000e-02 0.000000e+00
2.774000e-01 2.920000e-02 0.000000e+00
2.920000e-01 2.920000e-02 0.000000e+00
3.066000e-01 2.920000e-02 0.000000e+00
3.212000e-01 2.920000e-02 0.000000e+00
3.358000e-01 2.920000e-02 0.000000e+00
3.504000e-01 2.920000e-02 0.000000e+00
3.650000e-01 2.920000e-02 0.000000e+00
3.796000e-01 2.920000e-02 0.000000e+00
3.942000e-01 2.920000e-02 0.000000e+00
4.088000e-01 2.920000e-02 0.000000e+00
4.234000e-01 2.920000e-02 0.000000e+00
4.380000e-01 2.920000e-02 0.000000e+00
4.526000e-01 2.920000e-02 0.000000e+00
4.672000e-01 2.920000e-02 0.000000e+00
4.818000e-01 2.920000e-02 0.000000e+00
4.964000e-01 2.920000e-02 0.000000e+00
5.110000e-01 2.920000e-02 0.000000e+00
5.256000e-01 2.920000e-02 0.000000e+00
5.402000e-01 2.920000e-02 0.000000e+00
5.548000e-01 2.920000e-02 0.000000e+00
5.694000e-01 2.920000e-02 0.000000e+00
5.840000e-01 2.920000e-02 0.000000e+00
0.000000e+00 4.380000e-02 0.000000e+00
1.460000e-02 4.380000e-02 0.000000e+00
2.920000e-02 4.380000e-02 0.000000e+00
4.380000e-02 4.380000e-02 0.000000e+00
5.840000e-02 4.380000e-02 0.000000e+00
7.300000e-02 4.380000e-02 0.000000e+00
8.760000e-02 4.380000e-02 0.000000e+00
1.022000e-01 4.380000e-02 0.000000e+00
1.168000e-01 4.380000e-02 0.000000e+00
1.314000e-01 4.380000e-02 0.000000e+00
1.460000e-01 4.380000e-02 0.000000e+00
1.606000e-01 4.380000e-02 0.000000e+00
1.752000e-01 4.380000e-02 0.000000e+00
1.898000e-01 4.380000e-02 0.000000e+00
2.044000e-01 4.380000e-02 0.000000e+00
2.190000e-01 4.380000e-02 0.000000e+00
2.336000e-01 4.380000e-02 0.000000e+00
2.482000e-01 4.380000e-02 0.000000e+00
2.628000e-01 4.380000e-02 0.000000e+00
2.774000e-01 4.380000e-02 0.000000e+00
2.920000e-01 4.380000e-02 0.000000e+00
3.066000e-01 4.380000e-02 0.000000e+00
3.212000e-01 4.380000e-02 0.000000e+00
3.358000e-01 4.380000e-02 0.000000e+00
3.504000e-01 4.380000e-02 0.000000e+00
3.650000e-01 4.380000e-02 0.000000e+00
3.796000e-01 4.380000e-02 0.000000e+00
3.942000e-01 4.380000e-02 0.000000e+00
4.088000e-01 4.380000e-02 0.000000e+00
4.234000e-01 4.380000e-02 0.000000e+00
4.380000e-01 4.380000e-02 0.000000e+00
4.526000e-01 4.380000e-02 0.000000e+00
4.672000e-01 4.380000e-02 0.000000e+00
4.818000e-01 4.380000e-02 0.000000e+00
4.964000e-01 4.380000e-02 0.000000e+00
5.110000e-01 4.380000e-02 0.000000e+00
5.256000e-01 4.380000e-02 0.000000e+00
5.402000e-01 4.380000e-02 0.000000e+00
5.548000e-01 4.380000e-02 0.000000e+00
5.694000e-01 4.380000e-02 0.000000e+00
5.840000e-01 4.380000e-02 0.000000e+00
0.000000e+00 5.840000e-02 0.000000e+00
1.460000e-02 5.840000e-02 0.000000e+00
2.920000e-02 5.840000e-02 0.000000e+00
4.380000e-02 5.840000e-02 0.000000e+00
5.840000e-02 5.840000e-02 0.000000e+00
7.300000e-02 5.840000e-02 0.000000e+00
8.760000e-02 5.840000e-02 0.000000e+00
1.022000e-01 5.840000e-02 0.000000e+00
1.168000e-01 5.840000e-02 0.000000e+00
1.314000e-01 5.840000e-02 0.000000e+00
1.460000e-01 5.840000e-02 0.000000e+00
1.606000e-01 5.840000e-02 0.000000e+00
1.752000e-01 5.840000e-02 0.000000e+00
1.898000e-01 5.840000e-02 0.000000e+00
2.044000e-01 5.840000e-02 0.000000e+00
2.190000e-01 5.840000e-02 0.000000e+00
2.336000e-01 5.840000e-02 0.000000e+00
2.482000e-01 5.840000e-02 0.000000e+00
2.628000e-01 5.840000e-02 0.000000e+00
2.774000e-01 5.840000e-02 0.000000e+00
2.920000e-01 5.840000e-02 0.000000e+00
3.066000e-01 5.840000e-02 0.000000e+00
3.212000e-01 5.840000e-02 0.000000e+00
3.358000e-01 5.840000e-02 0.000000e+00
3.504000e-01 5.840000e-02 0.000000e+00
3.650000e-01 5.840000e-02 0.000000e+00
3.796000e-01 5.840000e-02 0.000000e+00
3.942000e-01 5.840000e-02 0.000000e+00
4.088000e-01 5.840000e-02 0.000000e+00
4.234000e-01 5.840000e-02 0.000000e+00
4.380000e-01 5.840000e-02 0.000000e+00
4.526000e-01 5.840000e-02 0.000000e+00
4.672000e-01 5.840000e-02 0.000000e+00
4.818000e-01 5.840000e-02 0.000000e+00
4.964000e-01 5.840000e-02 0.000000e+00
5.110000e-01 5.840000e-02 0.000000e+00
5.256000e-01 5.840000e-02 0.000000e+00
5.402000e-01 5.840000e-02 0.000000e+00
5.548000e-01 5.840000e-02 0.000000e+00
5.694000e-01 5.840000e-02 0.000000e+00
5.840000e-01 5.840000e-02 0.000000e+00
0.000000e+00 7.300000e-02 0.000000e+00
1.460000e-02 7.300000e-02 0.000000e+00
2.920000e-02 7.300000e-02 0.000000e+00
4.380000e-02 7.300000e-02 0.000000e+00
5.840000e-02 7.300000e-02 0.000000e+00
7.300000e-02 7.300000e-02 0.000000e+00
8.760000e-02 7.300000e-02 0.000000e+00
1.022000e-01 7.300000e-02 0.000000e+00
1.168000e-01 7.300000e-02 0.000000e+00
1.314000e-01 7.300000e-02 0.000000e+00
1.460000e-01 7.300000e-02 0.000000e+00
1.606000e-01 7.300000e-02 0.000000e+00
1.752000e-01 7.300000e-02 0.000000e+00
1.898000e-01 7.300000e-02 0.000000e+00
2.044000e-01 7.300000e-02 0.000000e+00
2.190000e-01 7.300000e-02 0.000000e+00
2.336000e-01 7.300000e-02 0.000000e+00
2.482000e-01 7.300000e-02 0.000000e+00
2.628000e-01 7.300000e-02 0.000000e+00
2.774000e-01 7.300000e-02 0.000000e+00
2.920000e-01 7.300000e-02 0.000000e+00
3.066000e-01 7.300000e-02 0.000000e+00
3.212000e-01 7.300000e-02 0.000000e+00
3.358000e-01 7.300000e-02 0.000000e+00
3.504000e-01 7.300000e-02 0.000000e+00
3.650000e-01 7.300000e-02 0.000000e+00
3.796000e-01 7.300000e-02 0.000000e+00
3.942000e-01 7.300000e-02 0.000000e+00
4.088000e-01 7.300000e-02 0.000000e+00
4.234000e-01 7.300000e-02 0.000000e+00
4.380000e-01 7.300000e-02 0.000000e+00
4.526000e-01 7.300000e-02 0.000000e+00
4.672000e-01 7.300000e-02 0.000000e+00
4.818000e-01 7.300000e-02 0.000000e+00
4.964000e-01 7.300000e-02 0.000000e+00
5.110000e-01 7.300000e-02 0.000000e+00
5.256000e-01 7.300000e-02 0.000000e+00
5.402000e-01 7.300000e-02 0.000000e+00
5.548000e-01 7.300000e-02 0.000000e+00
5.694000e-01 7.300000e-02 0.000000e+00
5.840000e-01 7.300000e-02 0.000000e+00
0.000000e+00 8.760000e-02 0.000000e+00
1.460000e-02 8.760000e-02 0.000000e+00
2.920000e-02 8.760000e-02 0.000000e+00
4.380000e-02 8.760000e-02 0.000000e+00
5.840000e-02 8.760000e-02 0.000000e+00
7.300000e-02 8.760000e-02 0.000000e+00
8.760000e-02 8.760000e-02 0.000000e+00
1.022000e-01 8.760000e-02 0.000000e+00
[...]
POINT_DATA 11767
VECTORS Velocity float
0.000000e+00 0.000000e+00 0.000000e+00
-1.330256e-02 0.000000e+00 0.000000e+00
9.545679e-03 0.000000e+00 0.000000e+00
2.848305e-02 0.000000e+00 0.000000e+00
4.360627e-02 0.000000e+00 0.000000e+00
5.458164e-02 0.000000e+00 0.000000e+00
6.289085e-02 0.000000e+00 0.000000e+00
6.799570e-02 0.000000e+00 0.000000e+00
6.996627e-02 0.000000e+00 0.000000e+00
6.853171e-02 0.000000e+00 0.000000e+00
6.341815e-02 0.000000e+00 0.000000e+00
5.440338e-02 0.000000e+00 0.000000e+00
4.188751e-02 0.000000e+00 0.000000e+00
2.661547e-02 0.000000e+00 0.000000e+00
9.394046e-03 0.000000e+00 0.000000e+00
-8.847275e-03 0.000000e+00 0.000000e+00
-2.663770e-02 0.000000e+00 0.000000e+00
-4.284982e-02 0.000000e+00 0.000000e+00
-5.671103e-02 0.000000e+00 0.000000e+00
-6.783134e-02 0.000000e+00 0.000000e+00
-7.612445e-02 0.000000e+00 0.000000e+00
-8.177763e-02 0.000000e+00 0.000000e+00
-8.524860e-02 0.000000e+00 0.000000e+00
-8.703258e-02 0.000000e+00 0.000000e+00
-8.764055e-02 0.000000e+00 0.000000e+00
-8.721397e-02 0.000000e+00 0.000000e+00
-8.574857e-02 0.000000e+00 0.000000e+00
-8.284400e-02 0.000000e+00 0.000000e+00
-7.810093e-02 0.000000e+00 0.000000e+00
-7.069812e-02 0.000000e+00 0.000000e+00
-6.037402e-02 0.000000e+00 0.000000e+00
-4.691548e-02 0.000000e+00 0.000000e+00
-3.132337e-02 0.000000e+00 0.000000e+00
-1.464782e-02 0.000000e+00 0.000000e+00
3.758819e-04 0.000000e+00 0.000000e+00
1.250857e-02 0.000000e+00 0.000000e+00
2.075749e-02 0.000000e+00 0.000000e+00
2.549658e-02 0.000000e+00 0.000000e+00
2.509164e-02 0.000000e+00 0.000000e+00
2.541216e-02 0.000000e+00 0.000000e+00
0.000000e+00 0.000000e+00 0.000000e+00
0.000000e+00 5.114728e-14 0.000000e+00
-1.330256e-02 -5.548718e-14 0.000000e+00
9.545679e-03 -4.521068e-14 0.000000e+00
2.848305e-02 -3.288732e-14 0.000000e+00
4.360627e-02 1.511230e-14 0.000000e+00
5.458164e-02 -1.271375e-14 0.000000e+00
6.289085e-02 1.961356e-14 0.000000e+00
6.799570e-02 5.403721e-15 0.000000e+00
6.996627e-02 2.185034e-15 0.000000e+00
6.853171e-02 6.098038e-16 0.000000e+00
6.341815e-02 -1.215333e-14 0.000000e+00
5.440338e-02 -9.184063e-16 0.000000e+00
4.188751e-02 1.453268e-14 0.000000e+00
2.661547e-02 -2.010529e-14 0.000000e+00
9.394046e-03 1.378852e-14 0.000000e+00
-8.847275e-03 2.633104e-14 0.000000e+00
-2.663770e-02 -3.686638e-14 0.000000e+00
-4.284982e-02 7.565419e-15 0.000000e+00
-5.671103e-02 -1.491688e-14 0.000000e+00
-6.783134e-02 1.209926e-15 0.000000e+00
-7.612445e-02 1.055202e-14 0.000000e+00
-8.177763e-02 4.634447e-15 0.000000e+00
-8.524860e-02 2.178475e-14 0.000000e+00
-8.703258e-02 1.564964e-16 0.000000e+00
-8.764055e-02 -3.019221e-15 0.000000e+00
-8.721397e-02 1.890143e-14 0.000000e+00
-8.574857e-02 -2.398663e-14 0.000000e+00
-8.284400e-02 1.824933e-14 0.000000e+00
-7.810093e-02 -3.617972e-14 0.000000e+00
-7.069812e-02 2.372424e-14 0.000000e+00
-6.037402e-02 -1.100980e-14 0.000000e+00
-4.691548e-02 -9.742997e-15 0.000000e+00
-3.132337e-02 2.153202e-15 0.000000e+00
-1.464782e-02 1.632261e-14 0.000000e+00
3.758819e-04 -3.090882e-14 0.000000e+00
1.250857e-02 1.150918e-13 0.000000e+00
2.075749e-02 -1.109738e-13 0.000000e+00
2.549658e-02 6.233902e-14 0.000000e+00
2.509164e-02 -8.600962e-14 0.000000e+00
2.541216e-02 2.639449e-14 0.000000e+00
0.000000e+00 -3.517724e-14 0.000000e+00
0.000000e+00 1.293468e-13 0.000000e+00
-1.330256e-02 -2.973425e-14 0.000000e+00
9.545679e-03 -3.643072e-14 0.000000e+00
2.848305e-02 -7.590094e-14 0.000000e+00
4.360627e-02 7.262051e-14 0.000000e+00
5.458164e-02 -2.804234e-14 0.000000e+00
6.289085e-02 3.062148e-14 0.000000e+00
6.799570e-02 -9.781926e-15 0.000000e+00
6.996627e-02 2.108393e-14 0.000000e+00
6.853171e-02 9.606446e-15 0.000000e+00
6.341815e-02 -6.521880e-15 0.000000e+00
5.440338e-02 -7.574865e-15 0.000000e+00
4.188751e-02 7.937227e-15 0.000000e+00
2.661547e-02 -2.035075e-14 0.000000e+00
9.394046e-03 3.772634e-14 0.000000e+00
-8.847275e-03 3.844440e-14 0.000000e+00
-2.663770e-02 -5.640218e-14 0.000000e+00
-4.284982e-02 9.545220e-15 0.000000e+00
-5.671103e-02 -2.773480e-14 0.000000e+00
-6.783134e-02 1.660775e-14 0.000000e+00
-7.612445e-02 -1.685303e-14 0.000000e+00
-8.177763e-02 7.406712e-15 0.000000e+00
-8.524860e-02 2.286186e-14 0.000000e+00
-8.703258e-02 -2.244879e-15 0.000000e+00
-8.764055e-02 -1.067688e-14 0.000000e+00
-8.721397e-02 1.967693e-14 0.000000e+00
-8.574857e-02 -2.937177e-14 0.000000e+00
-8.284400e-02 5.914495e-15 0.000000e+00
-7.810093e-02 -3.825222e-14 0.000000e+00
-7.069812e-02 1.993524e-14 0.000000e+00
-6.037402e-02 -5.214504e-15 0.000000e+00
-4.691548e-02 -2.216088e-14 0.000000e+00
-3.132337e-02 2.494964e-14 0.000000e+00
-1.464782e-02 6.715561e-14 0.000000e+00
3.758819e-04 -2.263889e-14 0.000000e+00
1.250857e-02 9.037427e-14 0.000000e+00
2.075749e-02 -5.554907e-14 0.000000e+00
2.549658e-02 -5.380405e-14 0.000000e+00
2.509164e-02 1.731530e-14 0.000000e+00
2.541216e-02 1.877889e-14 0.000000e+00
0.000000e+00 -1.579599e-13 0.000000e+00
0.000000e+00 6.634349e-14 0.000000e+00
-1.330256e-02 1.317043e-14 0.000000e+00
9.545679e-03 2.267458e-14 0.000000e+00
2.848305e-02 -7.803002e-14 0.000000e+00
4.360627e-02 6.064746e-14 0.000000e+00
5.458164e-02 -8.781092e-15 0.000000e+00
6.289085e-02 8.207195e-15 0.000000e+00
6.799570e-02 -1.641645e-14 0.000000e+00
6.996627e-02 4.416528e-14 0.000000e+00
6.853171e-02 -2.156652e-15 0.000000e+00
6.341815e-02 5.005765e-15 0.000000e+00
5.440338e-02 -1.835681e-14 0.000000e+00
4.188751e-02 -8.215875e-15 0.000000e+00
2.661547e-02 -2.147215e-14 0.000000e+00
9.394046e-03 2.723102e-14 0.000000e+00
-8.847275e-03 4.870207e-14 0.000000e+00
-2.663770e-02 -4.527080e-14 0.000000e+00
-4.284982e-02 2.327097e-14 0.000000e+00
-5.671103e-02 -1.099368e-14 0.000000e+00
-6.783134e-02 7.694035e-15 0.000000e+00
-7.612445e-02 -1.625064e-14 0.000000e+00
-8.177763e-02 1.340886e-14 0.000000e+00
-8.524860e-02 2.879771e-14 0.000000e+00
-8.703258e-02 -5.505611e-15 0.000000e+00
-8.764055e-02 -2.181196e-14 0.000000e+00
-8.721397e-02 9.771876e-15 0.000000e+00
-8.574857e-02 -3.076036e-14 0.000000e+00
-8.284400e-02 1.564028e-15 0.000000e+00
-7.810093e-02 -4.714780e-14 0.000000e+00
-7.069812e-02 2.479026e-14 0.000000e+00
-6.037402e-02 -2.042734e-14 0.000000e+00
-4.691548e-02 -1.498013e-14 0.000000e+00
-3.132337e-02 -4.632797e-16 0.000000e+00
-1.464782e-02 1.172356e-13 0.000000e+00
3.758819e-04 -9.845096e-14 0.000000e+00
1.250857e-02 1.749486e-13 0.000000e+00
2.075749e-02 -1.677540e-13 0.000000e+00
2.549658e-02 1.546898e-13 0.000000e+00
2.509164e-02 -4.424629e-14 0.000000e+00
2.541216e-02 2.053304e-14 0.000000e+00
0.000000e+00 -2.863197e-13 0.000000e+00
0.000000e+00 -1.120606e-13 0.000000e+00
-1.330256e-02 -8.335578e-14 0.000000e+00
9.545679e-03 -1.238546e-14 0.000000e+00
2.848305e-02 -8.816931e-14 0.000000e+00
4.360627e-02 3.046168e-14 0.000000e+00
5.458164e-02 1.385934e-14 0.000000e+00
6.289085e-02 -2.141368e-15 0.000000e+00
6.799570e-02 -2.793129e-14 0.000000e+00
6.996627e-02 2.552478e-14 0.000000e+00
6.853171e-02 8.322566e-16 0.000000e+00
6.341815e-02 -5.415736e-15 0.000000e+00
5.440338e-02 -2.958544e-14 0.000000e+00
4.188751e-02 9.124354e-15 0.000000e+00
2.661547e-02 -6.182209e-15 0.000000e+00
9.394046e-03 2.820797e-14 0.000000e+00
-8.847275e-03 4.607677e-14 0.000000e+00
-2.663770e-02 -4.869581e-14 0.000000e+00
-4.284982e-02 1.045977e-14 0.000000e+00
-5.671103e-02 -9.624855e-15 0.000000e+00
-6.783134e-02 4.633710e-15 0.000000e+00
-7.612445e-02 -1.873803e-14 0.000000e+00
-8.177763e-02 1.432125e-14 0.000000e+00
-8.524860e-02 4.563838e-14 0.000000e+00
-8.703258e-02 -3.356861e-15 0.000000e+00
-8.764055e-02 -2.567494e-15 0.000000e+00
-8.721397e-02 -5.143129e-15 0.000000e+00
-8.574857e-02 -1.954872e-14 0.000000e+00
-8.284400e-02 -2.186170e-15 0.000000e+00
-7.810093e-02 -1.358279e-14 0.000000e+00
-7.069812e-02 1.996624e-14 0.000000e+00
-6.037402e-02 4.275951e-15 0.000000e+00
-4.691548e-02 -1.505542e-14 0.000000e+00
-3.132337e-02 1.215532e-15 0.000000e+00
-1.464782e-02 5.217658e-14 0.000000e+00
3.758819e-04 -1.087742e-13 0.000000e+00
1.250857e-02 7.401508e-14 0.000000e+00
2.075749e-02 -1.299207e-13 0.000000e+00
2.549658e-02 5.739615e-14 0.000000e+00
2.509164e-02 4.845880e-14 0.000000e+00
2.541216e-02 -1.085375e-14 0.000000e+00
0.000000e+00 -1.118408e-13 0.000000e+00
0.000000e+00 1.015243e-13 0.000000e+00
-1.330256e-02 -1.863001e-13 0.000000e+00
9.545679e-03 3.040820e-14 0.000000e+00
2.848305e-02 -8.617227e-14 0.000000e+00
4.360627e-02 3.624429e-14 0.000000e+00
5.458164e-02 -1.836311e-14 0.000000e+00
6.289085e-02 1.901082e-15 0.000000e+00
6.799570e-02 -2.766523e-14 0.000000e+00
6.996627e-02 1.350257e-14 0.000000e+00
6.853171e-02 4.926300e-15 0.000000e+00
6.341815e-02 -7.483125e-15 0.000000e+00
5.440338e-02 -2.840855e-14 0.000000e+00
4.188751e-02 7.997384e-15 0.000000e+00
2.661547e-02 -1.531840e-14 0.000000e+00
9.394046e-03 1.612491e-14 0.000000e+00
-8.847275e-03 1.663676e-14 0.000000e+00
-2.663770e-02 -3.282830e-14 0.000000e+00
-4.284982e-02 5.538908e-16 0.000000e+00
-5.671103e-02 -7.074969e-15 0.000000e+00
-6.783134e-02 1.950340e-15 0.000000e+00
-7.612445e-02 -8.990571e-15 0.000000e+00
-8.177763e-02 1.858557e-15 0.000000e+00
-8.524860e-02 -3.700987e-16 0.000000e+00
-8.703258e-02 -2.443606e-15 0.000000e+00
-8.764055e-02 -1.305782e-14 0.000000e+00
-8.721397e-02 -8.854135e-15 0.000000e+00
-8.574857e-02 -2.427802e-14 0.000000e+00
-8.284400e-02 4.688001e-15 0.000000e+00
-7.810093e-02 -2.925903e-14 0.000000e+00
-7.069812e-02 4.335356e-15 0.000000e+00
-6.037402e-02 -3.044806e-15 0.000000e+00
-4.691548e-02 -1.136718e-14 0.000000e+00
-3.132337e-02 1.648136e-14 0.000000e+00
-1.464782e-02 4.966287e-14 0.000000e+00
3.758819e-04 -5.082254e-14 0.000000e+00
1.250857e-02 1.052520e-13 0.000000e+00
2.075749e-02 -1.755792e-13 0.000000e+00
2.549658e-02 1.618873e-13 0.000000e+00
2.509164e-02 -1.132922e-13 0.000000e+00
2.541216e-02 8.276368e-14 0.000000e+00
0.000000e+00 -9.060338e-14 0.000000e+00
0.000000e+00 0.000000e+00 0.000000e+00
-1.330256e-02 0.000000e+00 0.000000e+00
9.545679e-03 0.000000e+00 0.000000e+00
2.848305e-02 0.000000e+00 0.000000e+00
4.360627e-02 0.000000e+00 0.000000e+00
5.458164e-02 0.000000e+00 0.000000e+00
6.289085e-02 0.000000e+00 0.000000e+00
6.799570e-02 0.000000e+00 0.000000e+00
6.996627e-02 0.000000e+00 0.000000e+00
6.853171e-02 0.000000e+00 0.000000e+00
6.341815e-02 0.000000e+00 0.000000e+00
5.440338e-02 0.000000e+00 0.000000e+00
4.188751e-02 0.000000e+00 0.000000e+00
2.661547e-02 0.000000e+00 0.000000e+00
9.394046e-03 0.000000e+00 0.000000e+00
-8.847275e-03 0.000000e+00 0.000000e+00
-2.663770e-02 0.000000e+00 0.000000e+00
-4.284982e-02 0.000000e+00 0.000000e+00
-5.671103e-02 0.000000e+00 0.000000e+00
-6.783134e-02 0.000000e+00 0.000000e+00
-7.612445e-02 0.000000e+00 0.000000e+00
-8.177763e-02 0.000000e+00 0.000000e+00
-8.524860e-02 0.000000e+00 0.000000e+00
-8.703258e-02 0.000000e+00 0.000000e+00
-8.764055e-02 0.000000e+00 0.000000e+00
-8.721397e-02 0.000000e+00 0.000000e+00
-8.574857e-02 0.000000e+00 0.000000e+00
-8.284400e-02 0.000000e+00 0.000000e+00
-7.810093e-02 0.000000e+00 0.000000e+00
-7.069812e-02 0.000000e+00 0.000000e+00
-6.037402e-02 0.000000e+00 0.000000e+00
-4.691548e-02 0.000000e+00 0.000000e+00
-3.132337e-02 0.000000e+00 0.000000e+00
-1.464782e-02 0.000000e+00 0.000000e+00
3.758819e-04 0.000000e+00 0.000000e+00
1.250857e-02 0.000000e+00 0.000000e+00
2.075749e-02 0.000000e+00 0.000000e+00
2.549658e-02 0.000000e+00 0.000000e+00
2.509164e-02 0.000000e+00 0.000000e+00
2.541216e-02 0.000000e+00 0.000000e+00
0.000000e+00 0.000000e+00 0.000000e+00
0.000000e+00 0.000000e+00 1.507847e-02
-4.839234e-03 0.000000e+00 -6.137813e-03
-3.943049e-03 0.000000e+00 -2.054226e-02
-8.952989e-04 0.000000e+00 -1.403183e-02
2.208040e-03 0.000000e+00 -1.243590e-02
5.864601e-03 0.000000e+00 -1.000686e-02
9.360043e-03 0.000000e+00 -8.080366e-03
1.197476e-02 0.000000e+00 -5.428559e-03
1.265334e-02 0.000000e+00 -2.451700e-03
1.033451e-02 0.000000e+00 1.057668e-03
4.539936e-03 0.000000e+00 4.801249e-03
-4.574995e-03 0.000000e+00 8.420074e-03
-1.680171e-02 0.000000e+00 1.156110e-02
-3.196565e-02 0.000000e+00 1.403455e-02
-4.937961e-02 0.000000e+00 1.566413e-02
-6.793663e-02 0.000000e+00 1.604541e-02
-8.629298e-02 0.000000e+00 1.500386e-02
-1.029900e-01 0.000000e+00 1.288338e-02
-1.168731e-01 0.000000e+00 1.007044e-02
-1.273379e-01 0.000000e+00 7.007014e-03
-1.343334e-01 0.000000e+00 4.010852e-03
-1.380659e-01 0.000000e+00 1.347620e-03
-1.389289e-01 0.000000e+00 -8.317609e-04
-1.374430e-01 0.000000e+00 -2.456769e-03
-1.341785e-01 0.000000e+00 -3.685124e-03
-1.295606e-01 0.000000e+00 -4.747493e-03
-1.238574e-01 0.000000e+00 -5.906446e-03
-1.170586e-01 0.000000e+00 -7.380979e-03
-1.088008e-01 0.000000e+00 -9.471565e-03
-9.852931e-02 0.000000e+00 -1.212080e-02
-8.584420e-02 0.000000e+00 -1.504847e-02
-7.075338e-02 0.000000e+00 -1.761947e-02
-5.374161e-02 0.000000e+00 -1.929070e-02
-3.595691e-02 0.000000e+00 -1.915167e-02
-1.885351e-02 0.000000e+00 -1.701352e-02
-4.157658e-03 0.000000e+00 -1.351516e-02
6.707475e-03 0.000000e+00 -9.901275e-03
1.267313e-02 0.000000e+00 -4.339045e-03
1.508987e-02 0.000000e+00 -4.510844e-03
1.283384e-02 0.000000e+00 7.671640e-03
0.000000e+00 0.000000e+00 2.431652e-02
0.000000e+00 7.687446e-15 1.507847e-02
-4.839234e-03 -1.444968e-14 -6.137813e-03
-3.943049e-03 1.895536e-14 -2.054226e-02
-8.952989e-04 -1.512484e-14 -1.403183e-02
2.208040e-03 -9.800702e-16 -1.243590e-02
5.864601e-03 2.656930e-14 -1.000686e-02
9.360043e-03 1.486153e-14 -8.080366e-03
1.197476e-02 6.932183e-15 -5.428559e-03
1.265334e-02 -3.536845e-14 -2.451700e-03
1.033451e-02 1.329493e-14 1.057668e-03
4.539936e-03 3.151446e-14 4.801249e-03
-4.574995e-03 4.195395e-14 8.420074e-03
-1.680171e-02 -1.452726e-14 1.156110e-02
-3.196565e-02 -3.437008e-14 1.403455e-02
-4.937961e-02 7.327539e-16 1.566413e-02
-6.793663e-02 -1.967439e-14 1.604541e-02
-8.629298e-02 2.611456e-14 1.500386e-02
-1.029900e-01 6.131453e-15 1.288338e-02
-1.168731e-01 2.827135e-15 1.007044e-02
-1.273379e-01 5.926054e-15 7.007014e-03
-1.343334e-01 -9.043902e-15 4.010852e-03
-1.380659e-01 1.142541e-14 1.347620e-03
-1.389289e-01 -2.936271e-15 -8.317609e-04
-1.374430e-01 -1.430548e-14 -2.456769e-03
-1.341785e-01 2.362316e-14 -3.685124e-03
-1.295606e-01 -1.943404e-14 -4.747493e-03
-1.238574e-01 -4.035819e-15 -5.906446e-03
-1.170586e-01 1.154157e-14 -7.380979e-03
-1.088008e-01 9.783409e-15 -9.471565e-03
-9.852931e-02 -1.579603e-14 -1.212080e-02
-8.584420e-02 -9.754008e-15 -1.504847e-02
-7.075338e-02 2.576432e-15 -1.761947e-02
-5.374161e-02 -7.825098e-15 -1.929070e-02
-3.595691e-02 1.057113e-14 -1.915167e-02
-1.885351e-02 -7.172953e-15 -1.701352e-02
-4.157658e-03 -3.161484e-14 -1.351516e-02
6.707475e-03 -2.791561e-14 -9.901275e-03
1.267313e-02 -7.177766e-15 -4.339045e-03
1.508987e-02 -9.667527e-14 -4.510844e-03
1.283384e-02 8.870964e-14 7.671640e-03
0.000000e+00 -3.895546e-14 2.431652e-02
0.000000e+00 -5.067935e-14 1.507847e-02
-4.839234e-03 1.945924e-14 -6.137813e-03
-3.943049e-03 2.494542e-14 -2.054226e-02
-8.952989e-04 6.581016e-15 -1.403183e-02
2.208040e-03 4.792461e-15 -1.243590e-02
5.864601e-03 3.538958e-15 -1.000686e-02
9.360043e-03 4.287810e-14 -8.080366e-03
1.197476e-02 3.318748e-15 -5.428559e-03
1.265334e-02 1.479892e-14 -2.451700e-03
1.033451e-02 3.070138e-14 1.057668e-03
4.539936e-03 3.546816e-14 4.801249e-03
-4.574995e-03 2.751352e-14 8.420074e-03
-1.680171e-02 -3.664587e-14 1.156110e-02
-3.196565e-02 -2.931586e-14 1.403455e-02
-4.937961e-02 -3.845911e-16 1.566413e-02
-6.793663e-02 -3.978767e-14 1.604541e-02
-8.629298e-02 3.910794e-14 1.500386e-02
-1.029900e-01 -1.282238e-14 1.288338e-02
-1.168731e-01 1.569547e-15 1.007044e-02
-1.273379e-01 6.464902e-15 7.007014e-03
-1.343334e-01 -1.856628e-14 4.010852e-03
-1.380659e-01 2.513578e-14 1.347620e-03
-1.389289e-01 -2.339873e-14 -8.317609e-04
-1.374430e-01 -2.401333e-14 -2.456769e-03
-1.341785e-01 4.066198e-14 -3.685124e-03
-1.295606e-01 -3.452150e-14 -4.747493e-03
-1.238574e-01 -2.082398e-15 -5.906446e-03
-1.170586e-01 1.208394e-14 -7.380979e-03
-1.088008e-01 1.941261e-14 -9.471565e-03
-9.852931e-02 -2.200024e-14 -1.212080e-02
-8.584420e-02 -2.301298e-16 -1.504847e-02
-7.075338e-02 2.848935e-14 -1.761947e-02
-5.374161e-02 2.310781e-14 -1.929070e-02
-3.595691e-02 2.026282e-14 -1.915167e-02
-1.885351e-02 -1.064556e-14 -1.701352e-02
-4.157658e-03 -2.814348e-14 -1.351516e-02
6.707475e-03 -8.339994e-15 -9.901275e-03
1.267313e-02 -3.465034e-14 -4.339045e-03
1.508987e-02 -5.541438e-15 -4.510844e-03
1.283384e-02 2.439956e-14 7.671640e-03
0.000000e+00 -1.249798e-14 2.431652e-02
0.000000e+00 -3.015681e-14 1.507847e-02
-4.839234e-03 1.959938e-14 -6.137813e-03
-3.943049e-03 3.654795e-15 -2.054226e-02
-8.952989e-04 4.467737e-14 -1.403183e-02
2.208040e-03 -2.683355e-14 -1.243590e-02
5.864601e-03 -1.764977e-15 -1.000686e-02
9.360043e-03 4.147684e-14 -8.080366e-03
1.197476e-02 5.932384e-15 -5.428559e-03
1.265334e-02 -1.251654e-14 -2.451700e-03
1.033451e-02 2.300711e-14 1.057668e-03
4.539936e-03 6.237455e-14 4.801249e-03
-4.574995e-03 -8.845647e-15 8.420074e-03
-1.680171e-02 -1.323270e-14 1.156110e-02
-3.196565e-02 -4.201560e-14 1.403455e-02
-4.937961e-02 -8.090938e-15 1.566413e-02
-6.793663e-02 -2.497113e-14 1.604541e-02
-8.629298e-02 3.650964e-14 1.500386e-02
-1.029900e-01 -2.450564e-15 1.288338e-02
-1.168731e-01 1.229141e-14 1.007044e-02
-1.273379e-01 4.128683e-15 7.007014e-03
-1.343334e-01 -6.374821e-15 4.010852e-03
-1.380659e-01 2.797646e-14 1.347620e-03
-1.389289e-01 -2.714619e-14 -8.317609e-04
-1.374430e-01 -3.362002e-14 -2.456769e-03
-1.341785e-01 3.110101e-14 -3.685124e-03
-1.295606e-01 -4.132423e-14 -4.747493e-03
-1.238574e-01 5.167970e-15 -5.906446e-03
-1.170586e-01 1.256780e-14 -7.380979e-03
-1.088008e-01 1.403173e-14 -9.471565e-03
-9.852931e-02 -4.753113e-14 -1.212080e-02
-8.584420e-02 -1.394423e-14 -1.504847e-02
-7.075338e-02 3.547777e-14 -1.761947e-02
-5.374161e-02 1.738242e-14 -1.929070e-02
-3.595691e-02 2.040134e-15 -1.915167e-02
-1.885351e-02 -5.536013e-14 -1.701352e-02
-4.157658e-03 4.619361e-15 -1.351516e-02
6.707475e-03 -1.074814e-14 -9.901275e-03
1.267313e-02 -7.591278e-15 -4.339045e-03
1.508987e-02 -1.255944e-13 -4.510844e-03
1.283384e-02 1.566718e-13 7.671640e-03
0.000000e+00 -4.348540e-14 2.431652e-02
0.000000e+00 -5.296556e-14 1.507847e-02
-4.839234e-03 6.766387e-14 -6.137813e-03
-3.943049e-03 1.722079e-15 -2.054226e-02
-8.952989e-04 5.779609e-15 -1.403183e-02
2.208040e-03 -2.715881e-15 -1.243590e-02
5.864601e-03 -1.827999e-16 -1.000686e-02
9.360043e-03 1.295685e-14 -8.080366e-03
1.197476e-02 -3.658455e-15 -5.428559e-03
1.265334e-02 -2.371320e-14 -2.451700e-03
1.033451e-02 2.226651e-14 1.057668e-03
4.539936e-03 2.583010e-14 4.801249e-03
-4.574995e-03 1.664834e-14 8.420074e-03
-1.680171e-02 -7.802259e-15 1.156110e-02
-3.196565e-02 -4.367543e-14 1.403455e-02
-4.937961e-02 7.182888e-15 1.566413e-02
-6.793663e-02 -4.378885e-14 1.604541e-02
-8.629298e-02 2.729502e-14 1.500386e-02
-1.029900e-01 1.296436e-14 1.288338e-02
-1.168731e-01 4.776206e-15 1.007044e-02
-1.273379e-01 3.183056e-15 7.007014e-03
-1.343334e-01 -7.079620e-15 4.010852e-03
-1.380659e-01 3.699645e-14 1.347620e-03
-1.389289e-01 -1.925440e-14 -8.317609e-04
-1.374430e-01 -3.808566e-14 -2.456769e-03
-1.341785e-01 2.434392e-14 -3.685124e-03
-1.295606e-01 -3.622229e-14 -4.747493e-03
-1.238574e-01 2.281473e-14 -5.906446e-03
-1.170586e-01 1.516103e-14 -7.380979e-03
-1.088008e-01 2.399455e-14 -9.471565e-03
-9.852931e-02 -3.789733e-14 -1.212080e-02
-8.584420e-02 -6.341932e-15 -1.504847e-02
-7.075338e-02 4.239054e-14 -1.761947e-02
-5.374161e-02 8.348548e-15 -1.929070e-02
-3.595691e-02 -3.166153e-14 -1.915167e-02
-1.885351e-02 -7.624820e-14 -1.701352e-02
-4.157658e-03 2.831616e-15 -1.351516e-02
6.707475e-03 5.607740e-15 -9.901275e-03
1.267313e-02 -5.759334e-14 -4.339045e-03
1.508987e-02 -3.624099e-14 -4.510844e-03
1.283384e-02 3.350742e-14 7.671640e-03
0.000000e+00 -7.970721e-15 2.431652e-02
0.000000e+00 -9.228154e-14 1.507847e-02
-4.839234e-03 3.820271e-14 -6.137813e-03
-3.943049e-03 -5.835453e-15 -2.054226e-02
-8.952989e-04 2.968299e-15 -1.403183e-02