# vtk DataFile Version 3.0
vtk output
ASCII
DATASET UNSTRUCTURED_GRID
POINTS 11767 float
0.000000e+00 0.000000e+00 0.000000e+00
1.460000e-02 0.000000e+00 0.000000e+00
2.920000e-02 0.000000e+00 0.000000e+00
4.380000e-02 0.000000e+00 0.000000e+00
5.840000e-02 0.000000e+00 0.000000e+00
7.300000e-02 0.000000e+00 0.000000e+00
8.760000e-02 0.000000e+00 0.000000e+00
1.022000e-01 0.000000e+00 0.000000e+00
1.168000e-01 0.000000e+00 0.000000e+00
1.314000e-01 0.000000e+00 0.000000e+00
1.460000e-01 0.000000e+00 0.000000e+00
1.606000e-01 0.000000e+00 0.000000e+00
1.752000e-01 0.000000e+00 0.000000e+00
1.898000e-01 0.000000e+00 0.000000e+00
2.044000e-01 0.000000e+00 0.000000e+00
2.190000e-01 0.000000e+00 0.000000e+00
2.336000e-01 0.000000e+00 0.000000e+00
2.482000e-01 0.000000e+00 0.000000e+00
2.628000e-01 0.000000e+00 0.000000e+00
2.774000e-01 0.000000e+00 0.000000e+00
2.920000e-01 0.000000e+00 0.000000e+00
3.066000e-01 0.000000e+00 0.000000e+00
3.212000e-01 0.000000e+00 0.000000e+00
3.358000e-01 0.000000e+00 0.000000e+00
3.504000e-01 0.000000e+00 0.000000e+00
3.650000e-01 0.000000e+00 0.000000e+00
3.796000e-01 0.000000e+00 0.000000e+00
3.942000e-01 0.000000e+00 0.000000e+00
4.088000e-01 0.000000e+00 0.000000e+00
4.234000e-01 0.000000e+00 0.000000e+00
4.380000e-01 0.000000e+00 0.000000e+00
4.526000e-01 0.000000e+00 0.000000e+00
4.672000e-01 0.000000e+00 0.000000e+00
4.818000e-01 0.000000e+00 0.000000e+00
4.964000e-01 0.000000e+00 0.000000e+00
5.110000e-01 0.000000e+00 0.000000e+00
5.256000e-01 0.000000e+00 0.000000e+00
5.402000e-01 0.000000e+00 0.000000e+00
5.548000e-01 0.000000e+00 0.000000e+00
5.694000e-01 0.000000e+00 0.000000e+00
5.840000e-01 0.000000e+00 0.000000e+00
0.000000e+00 1.460000e-02 0.000000e+00
1.460000e-02 1.460000e-02 0.000000e+00
2.920000e-02 1.460000e-02 0.000000e+00
4.380000e-02 1.460000e-02 0.000000e+00
5.840000e-02 1.460000e-02 0.000000e+00
7.300000e-02 1.460000e-02 0.000000e+00
8.760000e-02 1.460000e-02 0.000000e+00
1.022000e-01 1.460000e-02 0.000000e+00
1.168000e-01 1.460000e-02 0.000000e+00
1.314000e-01 1.460000e-02 0.000000e+00
1.460000e-01 1.460000e-02 0.000000e+00
1.606000e-01 1.460000e-02 0.000000e+00
1.752000e-01 1.460000e-02 0.000000e+00
1.898000e-01 1.460000e-02 0.000000e+00
2.044000e-01 1.460000e-02 0.000000e+00
2.190000e-01 1.460000e-02 0.000000e+00
2.336000e-01 1.460000e-02 0.000000e+00
2.482000e-01 1.460000e-02 0.000000e+00
2.628000e-01 1.460000e-02 0.000000e+00
2.774000e-01 1.460000e-02 0.000000e+00
2.920000e-01 1.460000e-02 0.000000e+00
3.066000e-01 1.460000e-02 0.000000e+00
3.212000e-01 1.460000e-02 0.000000e+00
3.358000e-01 1.460000e-02 0.000000e+00
3.504000e-01 1.460000e-02 0.000000e+00
3.650000e-01 1.460000e-02 0.000000e+00
3.796000e-01 1.460000e-02 0.000000e+00
3.942000e-01 1.460000e-02 0.000000e+00
4.088000e-01 1.460000e-02 0.000000e+00
4.234000e-01 1.460000e-02 0.000000e+00
4.380000e-01 1.460000e-02 0.000000e+00
4.526000e-01 1.460000e-02 0.000000e+00
4.672000e-01 1.460000e-02 0.000000e+00
4.818000e-01 1.460000e-02 0.000000e+00
4.964000e-01 1.460000e-02 0.000000e+00
5.110000e-01 1.460000e-02 0.000000e+00
5.256000e-01 1.460000e-02 0.000000e+00
5.402000e-01 1.460000e-02 0.000000e+00
5.548000e-01 1.460000e-02 0.000000e+00
5.694000e-01 1.460000e-02 0.000000e+00
5.840000e-01 1.460000e-02 0.000000e+00
0.000000e+00 2.920000e-02 0.000000e+00
1.460000e-02 2.920000e-02 0.000000e+00
2.920000e-02 2.920000e-02 0.000000e+00
4.380000e-02 2.920000e-02 0.000000e+00
5.840000e-02 2.920000e-02 0.000000e+00
7.300000e-02 2.920000e-02 0.000000e+00
8.760000e-02 2.920000e-02 0.000000e+00
1.022000e-01 2.920000e-02 0.000000e+00
1.168000e-01 2.920000e-02 0.000000e+00
1.314000e-01 2.920000e-02 0.000000e+00
1.460000e-01 2.920000e-02 0.000000e+00
1.606000e-01 2.920000e-02 0.000000e+00
1.752000e-01 2.920000e-02 0.000000e+00
1.898000e-01 2.920000e-02 0.000000e+00
2.044000e-01 2.920000e-02 0.000000e+00
2.190000e-01 2.920000e-02 0.000000e+00
2.336000e-01 2.920000e-02 0.000000e+00
2.482000e-01 2.920000e-02 0.000000e+00
2.628000e-01 2.920000e-02 0.000000e+00
2.774000e-01 2.920000e-02 0.000000e+00
2.920000e-01 2.920000e-02 0.000000e+00
3.066000e-01 2.920000e-02 0.000000e+00
3.212000e-01 2.920000e-02 0.000000e+00
3.358000e-01 2.920000e-02 0.000000e+00
3.504000e-01 2.920000e-02 0.000000e+00
3.650000e-01 2.920000e-02 0.000000e+00
3.796000e-01 2.920000e-02 0.000000e+00
3.942000e-01 2.920000e-02 0.000000e+00
4.088000e-01 2.920000e-02 0.000000e+00
4.234000e-01 2.920000e-02 0.000000e+00
4.380000e-01 2.920000e-02 0.000000e+00
4.526000e-01 2.920000e-02 0.000000e+00
4.672000e-01 2.920000e-02 0.000000e+00
4.818000e-01 2.920000e-02 0.000000e+00
4.964000e-01 2.920000e-02 0.000000e+00
5.110000e-01 2.920000e-02 0.000000e+00
5.256000e-01 2.920000e-02 0.000000e+00
5.402000e-01 2.920000e-02 0.000000e+00
5.548000e-01 2.920000e-02 0.000000e+00
5.694000e-01 2.920000e-02 0.000000e+00
5.840000e-01 2.920000e-02 0.000000e+00
0.000000e+00 4.380000e-02 0.000000e+00
1.460000e-02 4.380000e-02 0.000000e+00
2.920000e-02 4.380000e-02 0.000000e+00
4.380000e-02 4.380000e-02 0.000000e+00
5.840000e-02 4.380000e-02 0.000000e+00
7.300000e-02 4.380000e-02 0.000000e+00
8.760000e-02 4.380000e-02 0.000000e+00
1.022000e-01 4.380000e-02 0.000000e+00
1.168000e-01 4.380000e-02 0.000000e+00
1.314000e-01 4.380000e-02 0.000000e+00
1.460000e-01 4.380000e-02 0.000000e+00
1.606000e-01 4.380000e-02 0.000000e+00
1.752000e-01 4.380000e-02 0.000000e+00
1.898000e-01 4.380000e-02 0.000000e+00
2.044000e-01 4.380000e-02 0.000000e+00
2.190000e-01 4.380000e-02 0.000000e+00
2.336000e-01 4.380000e-02 0.000000e+00
2.482000e-01 4.380000e-02 0.000000e+00
2.628000e-01 4.380000e-02 0.000000e+00
2.774000e-01 4.380000e-02 0.000000e+00
2.920000e-01 4.380000e-02 0.000000e+00
3.066000e-01 4.380000e-02 0.000000e+00
3.212000e-01 4.380000e-02 0.000000e+00
3.358000e-01 4.380000e-02 0.000000e+00
3.504000e-01 4.380000e-02 0.000000e+00
3.650000e-01 4.380000e-02 0.000000e+00
3.796000e-01 4.380000e-02 0.000000e+00
3.942000e-01 4.380000e-02 0.000000e+00
4.088000e-01 4.380000e-02 0.000000e+00
4.234000e-01 4.380000e-02 0.000000e+00
4.380000e-01 4.380000e-02 0.000000e+00
4.526000e-01 4.380000e-02 0.000000e+00
4.672000e-01 4.380000e-02 0.000000e+00
4.818000e-01 4.380000e-02 0.000000e+00
4.964000e-01 4.380000e-02 0.000000e+00
5.110000e-01 4.380000e-02 0.000000e+00
5.256000e-01 4.380000e-02 0.000000e+00
5.402000e-01 4.380000e-02 0.000000e+00
5.548000e-01 4.380000e-02 0.000000e+00
5.694000e-01 4.380000e-02 0.000000e+00
5.840000e-01 4.380000e-02 0.000000e+00
0.000000e+00 5.840000e-02 0.000000e+00
1.460000e-02 5.840000e-02 0.000000e+00
2.920000e-02 5.840000e-02 0.000000e+00
4.380000e-02 5.840000e-02 0.000000e+00
5.840000e-02 5.840000e-02 0.000000e+00
7.300000e-02 5.840000e-02 0.000000e+00
8.760000e-02 5.840000e-02 0.000000e+00
1.022000e-01 5.840000e-02 0.000000e+00
1.168000e-01 5.840000e-02 0.000000e+00
1.314000e-01 5.840000e-02 0.000000e+00
1.460000e-01 5.840000e-02 0.000000e+00
1.606000e-01 5.840000e-02 0.000000e+00
1.752000e-01 5.840000e-02 0.000000e+00
1.898000e-01 5.840000e-02 0.000000e+00
2.044000e-01 5.840000e-02 0.000000e+00
2.190000e-01 5.840000e-02 0.000000e+00
2.336000e-01 5.840000e-02 0.000000e+00
2.482000e-01 5.840000e-02 0.000000e+00
2.628000e-01 5.840000e-02 0.000000e+00
2.774000e-01 5.840000e-02 0.000000e+00
2.920000e-01 5.840000e-02 0.000000e+00
3.066000e-01 5.840000e-02 0.000000e+00
3.212000e-01 5.840000e-02 0.000000e+00
3.358000e-01 5.840000e-02 0.000000e+00
3.504000e-01 5.840000e-02 0.000000e+00
3.650000e-01 5.840000e-02 0.000000e+00
3.796000e-01 5.840000e-02 0.000000e+00
3.942000e-01 5.840000e-02 0.000000e+00
4.088000e-01 5.840000e-02 0.000000e+00
4.234000e-01 5.840000e-02 0.000000e+00
4.380000e-01 5.840000e-02 0.000000e+00
4.526000e-01 5.840000e-02 0.000000e+00
4.672000e-01 5.840000e-02 0.000000e+00
4.818000e-01 5.840000e-02 0.000000e+00
4.964000e-01 5.840000e-02 0.000000e+00
5.110000e-01 5.840000e-02 0.000000e+00
5.256000e-01 5.840000e-02 0.000000e+00
5.402000e-01 5.840000e-02 0.000000e+00
5.548000e-01 5.840000e-02 0.000000e+00
5.694000e-01 5.840000e-02 0.000000e+00
5.840000e-01 5.840000e-02 0.000000e+00
0.000000e+00 7.300000e-02 0.000000e+00
1.460000e-02 7.300000e-02 0.000000e+00
2.920000e-02 7.300000e-02 0.000000e+00
4.380000e-02 7.300000e-02 0.000000e+00
5.840000e-02 7.300000e-02 0.000000e+00
7.300000e-02 7.300000e-02 0.000000e+00
8.760000e-02 7.300000e-02 0.000000e+00
1.022000e-01 7.300000e-02 0.000000e+00
1.168000e-01 7.300000e-02 0.000000e+00
1.314000e-01 7.300000e-02 0.000000e+00
1.460000e-01 7.300000e-02 0.000000e+00
1.606000e-01 7.300000e-02 0.000000e+00
1.752000e-01 7.300000e-02 0.000000e+00
1.898000e-01 7.300000e-02 0.000000e+00
2.044000e-01 7.300000e-02 0.000000e+00
2.190000e-01 7.300000e-02 0.000000e+00
2.336000e-01 7.300000e-02 0.000000e+00
2.482000e-01 7.300000e-02 0.000000e+00
2.628000e-01 7.300000e-02 0.000000e+00
2.774000e-01 7.300000e-02 0.000000e+00
2.920000e-01 7.300000e-02 0.000000e+00
3.066000e-01 7.300000e-02 0.000000e+00
3.212000e-01 7.300000e-02 0.000000e+00
3.358000e-01 7.300000e-02 0.000000e+00
3.504000e-01 7.300000e-02 0.000000e+00
3.650000e-01 7.300000e-02 0.000000e+00
3.796000e-01 7.300000e-02 0.000000e+00
3.942000e-01 7.300000e-02 0.000000e+00
4.088000e-01 7.300000e-02 0.000000e+00
4.234000e-01 7.300000e-02 0.000000e+00
4.380000e-01 7.300000e-02 0.000000e+00
4.526000e-01 7.300000e-02 0.000000e+00
4.672000e-01 7.300000e-02 0.000000e+00
4.818000e-01 7.300000e-02 0.000000e+00
4.964000e-01 7.300000e-02 0.000000e+00
5.110000e-01 7.300000e-02 0.000000e+00
5.256000e-01 7.300000e-02 0.000000e+00
5.402000e-01 7.300000e-02 0.000000e+00
5.548000e-01 7.300000e-02 0.000000e+00
5.694000e-01 7.300000e-02 0.000000e+00
5.840000e-01 7.300000e-02 0.000000e+00
0.000000e+00 8.760000e-02 0.000000e+00
1.460000e-02 8.760000e-02 0.000000e+00
2.920000e-02 8.760000e-02 0.000000e+00
4.380000e-02 8.760000e-02 0.000000e+00
5.840000e-02 8.760000e-02 0.000000e+00
7.300000e-02 8.760000e-02 0.000000e+00
8.760000e-02 8.760000e-02 0.000000e+00
1.022000e-01 8.760000e-02 0.000000e+00
[...]
POINT_DATA 11767
VECTORS Velocity float
0.000000e+00 0.000000e+00 0.000000e+00
1.491913e-02 0.000000e+00 0.000000e+00
2.630544e-02 0.000000e+00 0.000000e+00
3.762928e-02 0.000000e+00 0.000000e+00
4.642210e-02 0.000000e+00 0.000000e+00
5.360344e-02 0.000000e+00 0.000000e+00
5.906926e-02 0.000000e+00 0.000000e+00
6.395341e-02 0.000000e+00 0.000000e+00
6.831747e-02 0.000000e+00 0.000000e+00
7.289343e-02 0.000000e+00 0.000000e+00
7.777343e-02 0.000000e+00 0.000000e+00
8.343554e-02 0.000000e+00 0.000000e+00
9.006583e-02 0.000000e+00 0.000000e+00
9.824612e-02 0.000000e+00 0.000000e+00
1.082982e-01 0.000000e+00 0.000000e+00
1.205584e-01 0.000000e+00 0.000000e+00
1.351508e-01 0.000000e+00 0.000000e+00
1.519366e-01 0.000000e+00 0.000000e+00
1.703467e-01 0.000000e+00 0.000000e+00
1.895702e-01 0.000000e+00 0.000000e+00
2.086916e-01 0.000000e+00 0.000000e+00
2.268977e-01 0.000000e+00 0.000000e+00
2.436478e-01 0.000000e+00 0.000000e+00
2.586567e-01 0.000000e+00 0.000000e+00
2.717941e-01 0.000000e+00 0.000000e+00
2.829408e-01 0.000000e+00 0.000000e+00
2.919281e-01 0.000000e+00 0.000000e+00
2.984951e-01 0.000000e+00 0.000000e+00
3.023748e-01 0.000000e+00 0.000000e+00
3.032028e-01 0.000000e+00 0.000000e+00
3.006895e-01 0.000000e+00 0.000000e+00
2.944940e-01 0.000000e+00 0.000000e+00
2.843534e-01 0.000000e+00 0.000000e+00
2.698585e-01 0.000000e+00 0.000000e+00
2.502012e-01 0.000000e+00 0.000000e+00
2.251075e-01 0.000000e+00 0.000000e+00
1.927126e-01 0.000000e+00 0.000000e+00
1.554498e-01 0.000000e+00 0.000000e+00
1.096748e-01 0.000000e+00 0.000000e+00
6.490772e-02 0.000000e+00 0.000000e+00
0.000000e+00 0.000000e+00 0.000000e+00
0.000000e+00 -1.076723e-13 0.000000e+00
1.491913e-02 1.163855e-13 0.000000e+00
2.630544e-02 -4.874681e-14 0.000000e+00
3.762928e-02 4.279454e-16 0.000000e+00
4.642210e-02 8.867283e-15 0.000000e+00
5.360344e-02 -2.129302e-14 0.000000e+00
5.906926e-02 2.333469e-14 0.000000e+00
6.395341e-02 -7.920141e-15 0.000000e+00
6.831747e-02 -2.343371e-15 0.000000e+00
7.289343e-02 -2.579442e-14 0.000000e+00
7.777343e-02 3.438616e-14 0.000000e+00
8.343554e-02 -1.054113e-15 0.000000e+00
9.006583e-02 1.526362e-15 0.000000e+00
9.824612e-02 -7.110273e-15 0.000000e+00
1.082982e-01 -6.900400e-15 0.000000e+00
1.205584e-01 1.193692e-14 0.000000e+00
1.351508e-01 -1.991848e-14 0.000000e+00
1.519366e-01 -5.973529e-15 0.000000e+00
1.703467e-01 -1.945796e-14 0.000000e+00
1.895702e-01 5.668659e-15 0.000000e+00
2.086916e-01 -2.771050e-14 0.000000e+00
2.268977e-01 2.107314e-15 0.000000e+00
2.436478e-01 -2.731680e-14 0.000000e+00
2.586567e-01 -6.957674e-15 0.000000e+00
2.717941e-01 -2.047556e-14 0.000000e+00
2.829408e-01 -6.356718e-15 0.000000e+00
2.919281e-01 -2.418295e-14 0.000000e+00
2.984951e-01 -1.129746e-14 0.000000e+00
3.023748e-01 -3.751115e-14 0.000000e+00
3.032028e-01 6.324320e-15 0.000000e+00
3.006895e-01 -2.004329e-14 0.000000e+00
2.944940e-01 1.289963e-14 0.000000e+00
2.843534e-01 -2.073086e-15 0.000000e+00
2.698585e-01 1.626988e-14 0.000000e+00
2.502012e-01 -1.331353e-14 0.000000e+00
2.251075e-01 4.301341e-14 0.000000e+00
1.927126e-01 -3.802642e-14 0.000000e+00
1.554498e-01 5.805795e-14 0.000000e+00
1.096748e-01 -1.681226e-14 0.000000e+00
6.490772e-02 2.734300e-14 0.000000e+00
0.000000e+00 -2.796827e-14 0.000000e+00
0.000000e+00 -7.012869e-14 0.000000e+00
1.491913e-02 6.288256e-14 0.000000e+00
2.630544e-02 -2.802778e-14 0.000000e+00
3.762928e-02 -2.642667e-14 0.000000e+00
4.642210e-02 2.929584e-14 0.000000e+00
5.360344e-02 -2.809671e-14 0.000000e+00
5.906926e-02 3.964358e-14 0.000000e+00
6.395341e-02 -4.252909e-14 0.000000e+00
6.831747e-02 9.478024e-15 0.000000e+00
7.289343e-02 -2.325464e-14 0.000000e+00
7.777343e-02 4.708003e-14 0.000000e+00
8.343554e-02 -3.559270e-15 0.000000e+00
9.006583e-02 1.076362e-15 0.000000e+00
9.824612e-02 -1.319125e-14 0.000000e+00
1.082982e-01 -7.276519e-15 0.000000e+00
1.205584e-01 2.622325e-15 0.000000e+00
1.351508e-01 -1.860270e-14 0.000000e+00
1.519366e-01 -1.557451e-14 0.000000e+00
1.703467e-01 -9.602362e-15 0.000000e+00
1.895702e-01 1.748171e-16 0.000000e+00
2.086916e-01 -2.606492e-14 0.000000e+00
2.268977e-01 -3.890931e-15 0.000000e+00
2.436478e-01 -2.935421e-14 0.000000e+00
2.586567e-01 -9.919410e-15 0.000000e+00
2.717941e-01 -1.795860e-14 0.000000e+00
2.829408e-01 -1.125847e-14 0.000000e+00
2.919281e-01 -1.834952e-14 0.000000e+00
2.984951e-01 -1.926081e-14 0.000000e+00
3.023748e-01 -4.396708e-14 0.000000e+00
3.032028e-01 1.840399e-14 0.000000e+00
3.006895e-01 -2.151936e-14 0.000000e+00
2.944940e-01 1.336487e-14 0.000000e+00
2.843534e-01 1.107398e-14 0.000000e+00
2.698585e-01 1.086044e-14 0.000000e+00
2.502012e-01 -5.180157e-15 0.000000e+00
2.251075e-01 3.901860e-14 0.000000e+00
1.927126e-01 -5.001202e-14 0.000000e+00
1.554498e-01 5.470128e-14 0.000000e+00
1.096748e-01 -1.339667e-14 0.000000e+00
6.490772e-02 3.105230e-14 0.000000e+00
0.000000e+00 -1.956790e-14 0.000000e+00
0.000000e+00 6.668780e-14 0.000000e+00
1.491913e-02 -5.816133e-14 0.000000e+00
2.630544e-02 2.766061e-14 0.000000e+00
3.762928e-02 -1.004277e-14 0.000000e+00
4.642210e-02 -2.560988e-14 0.000000e+00
5.360344e-02 -2.863958e-15 0.000000e+00
5.906926e-02 1.331579e-14 0.000000e+00
6.395341e-02 -5.719006e-15 0.000000e+00
6.831747e-02 7.250559e-15 0.000000e+00
7.289343e-02 -3.850251e-14 0.000000e+00
7.777343e-02 3.649482e-14 0.000000e+00
8.343554e-02 -8.328463e-15 0.000000e+00
9.006583e-02 -6.313107e-15 0.000000e+00
9.824612e-02 -1.031006e-14 0.000000e+00
1.082982e-01 -4.577274e-15 0.000000e+00
1.205584e-01 1.445464e-14 0.000000e+00
1.351508e-01 -2.935073e-14 0.000000e+00
1.519366e-01 -6.903742e-15 0.000000e+00
1.703467e-01 -2.350345e-14 0.000000e+00
1.895702e-01 8.159291e-15 0.000000e+00
2.086916e-01 -3.410443e-14 0.000000e+00
2.268977e-01 5.075401e-15 0.000000e+00
2.436478e-01 -4.586198e-14 0.000000e+00
2.586567e-01 -4.198699e-15 0.000000e+00
2.717941e-01 -2.421618e-14 0.000000e+00
2.829408e-01 -5.607921e-15 0.000000e+00
2.919281e-01 -2.016129e-14 0.000000e+00
2.984951e-01 -1.582886e-14 0.000000e+00
3.023748e-01 -4.303216e-14 0.000000e+00
3.032028e-01 2.256226e-14 0.000000e+00
3.006895e-01 -1.816955e-14 0.000000e+00
2.944940e-01 1.804678e-14 0.000000e+00
2.843534e-01 6.686685e-15 0.000000e+00
2.698585e-01 1.187578e-14 0.000000e+00
2.502012e-01 -1.670996e-14 0.000000e+00
2.251075e-01 5.171608e-14 0.000000e+00
1.927126e-01 -6.285125e-14 0.000000e+00
1.554498e-01 8.262814e-14 0.000000e+00
1.096748e-01 -1.366365e-14 0.000000e+00
6.490772e-02 5.662782e-14 0.000000e+00
0.000000e+00 -7.026430e-14 0.000000e+00
0.000000e+00 1.227962e-13 0.000000e+00
1.491913e-02 -4.666639e-14 0.000000e+00
2.630544e-02 -9.275020e-15 0.000000e+00
3.762928e-02 3.537031e-14 0.000000e+00
4.642210e-02 -5.492131e-14 0.000000e+00
5.360344e-02 2.737242e-14 0.000000e+00
5.906926e-02 -7.637661e-15 0.000000e+00
6.395341e-02 -6.927486e-15 0.000000e+00
6.831747e-02 2.283347e-14 0.000000e+00
7.289343e-02 -3.006343e-14 0.000000e+00
7.777343e-02 2.727014e-14 0.000000e+00
8.343554e-02 1.036883e-15 0.000000e+00
9.006583e-02 -9.854713e-15 0.000000e+00
9.824612e-02 1.944902e-16 0.000000e+00
1.082982e-01 -1.031480e-14 0.000000e+00
1.205584e-01 9.931234e-15 0.000000e+00
1.351508e-01 -3.244019e-14 0.000000e+00
1.519366e-01 -1.013532e-14 0.000000e+00
1.703467e-01 -2.195420e-14 0.000000e+00
1.895702e-01 1.143282e-14 0.000000e+00
2.086916e-01 -2.014652e-14 0.000000e+00
2.268977e-01 5.962579e-15 0.000000e+00
2.436478e-01 -3.755014e-14 0.000000e+00
2.586567e-01 -3.433098e-15 0.000000e+00
2.717941e-01 -2.594244e-14 0.000000e+00
2.829408e-01 7.325288e-16 0.000000e+00
2.919281e-01 -1.985039e-14 0.000000e+00
2.984951e-01 -7.427670e-15 0.000000e+00
3.023748e-01 -4.081243e-14 0.000000e+00
3.032028e-01 2.455214e-14 0.000000e+00
3.006895e-01 -1.532941e-14 0.000000e+00
2.944940e-01 1.460926e-14 0.000000e+00
2.843534e-01 2.112599e-15 0.000000e+00
2.698585e-01 2.584354e-16 0.000000e+00
2.502012e-01 -1.342377e-14 0.000000e+00
2.251075e-01 3.355541e-14 0.000000e+00
1.927126e-01 -5.100670e-14 0.000000e+00
1.554498e-01 6.721861e-14 0.000000e+00
1.096748e-01 -4.640277e-16 0.000000e+00
6.490772e-02 1.544568e-14 0.000000e+00
0.000000e+00 -1.480453e-14 0.000000e+00
0.000000e+00 -1.999492e-13 0.000000e+00
1.491913e-02 9.527551e-14 0.000000e+00
2.630544e-02 -8.149736e-14 0.000000e+00
3.762928e-02 8.836503e-15 0.000000e+00
4.642210e-02 -1.558786e-14 0.000000e+00
5.360344e-02 2.067875e-14 0.000000e+00
5.906926e-02 -1.568133e-14 0.000000e+00
6.395341e-02 -3.299558e-15 0.000000e+00
6.831747e-02 1.354320e-14 0.000000e+00
7.289343e-02 -1.368670e-14 0.000000e+00
7.777343e-02 1.797833e-15 0.000000e+00
8.343554e-02 -1.119781e-14 0.000000e+00
9.006583e-02 3.731562e-15 0.000000e+00
9.824612e-02 4.132790e-15 0.000000e+00
1.082982e-01 -2.038431e-15 0.000000e+00
1.205584e-01 -7.035518e-15 0.000000e+00
1.351508e-01 -1.715174e-14 0.000000e+00
1.519366e-01 -7.060512e-15 0.000000e+00
1.703467e-01 -7.541680e-15 0.000000e+00
1.895702e-01 -3.259808e-15 0.000000e+00
2.086916e-01 -1.008474e-14 0.000000e+00
2.268977e-01 -1.931901e-16 0.000000e+00
2.436478e-01 -1.982079e-14 0.000000e+00
2.586567e-01 -4.900395e-15 0.000000e+00
2.717941e-01 -1.625793e-14 0.000000e+00
2.829408e-01 -1.162558e-15 0.000000e+00
2.919281e-01 -1.366372e-14 0.000000e+00
2.984951e-01 -1.789828e-15 0.000000e+00
3.023748e-01 -2.859879e-14 0.000000e+00
3.032028e-01 2.138389e-14 0.000000e+00
3.006895e-01 -1.590015e-14 0.000000e+00
2.944940e-01 1.497550e-14 0.000000e+00
2.843534e-01 -1.116691e-14 0.000000e+00
2.698585e-01 1.758193e-14 0.000000e+00
2.502012e-01 -2.224881e-14 0.000000e+00
2.251075e-01 4.233142e-14 0.000000e+00
1.927126e-01 -5.113419e-14 0.000000e+00
1.554498e-01 6.800380e-14 0.000000e+00
1.096748e-01 -5.246880e-14 0.000000e+00
6.490772e-02 5.976223e-14 0.000000e+00
0.000000e+00 -1.405219e-14 0.000000e+00
0.000000e+00 0.000000e+00 0.000000e+00
1.491913e-02 0.000000e+00 0.000000e+00
2.630544e-02 0.000000e+00 0.000000e+00
3.762928e-02 0.000000e+00 0.000000e+00
4.642210e-02 0.000000e+00 0.000000e+00
5.360344e-02 0.000000e+00 0.000000e+00
5.906926e-02 0.000000e+00 0.000000e+00
6.395341e-02 0.000000e+00 0.000000e+00
6.831747e-02 0.000000e+00 0.000000e+00
7.289343e-02 0.000000e+00 0.000000e+00
7.777343e-02 0.000000e+00 0.000000e+00
8.343554e-02 0.000000e+00 0.000000e+00
9.006583e-02 0.000000e+00 0.000000e+00
9.824612e-02 0.000000e+00 0.000000e+00
1.082982e-01 0.000000e+00 0.000000e+00
1.205584e-01 0.000000e+00 0.000000e+00
1.351508e-01 0.000000e+00 0.000000e+00
1.519366e-01 0.000000e+00 0.000000e+00
1.703467e-01 0.000000e+00 0.000000e+00
1.895702e-01 0.000000e+00 0.000000e+00
2.086916e-01 0.000000e+00 0.000000e+00
2.268977e-01 0.000000e+00 0.000000e+00
2.436478e-01 0.000000e+00 0.000000e+00
2.586567e-01 0.000000e+00 0.000000e+00
2.717941e-01 0.000000e+00 0.000000e+00
2.829408e-01 0.000000e+00 0.000000e+00
2.919281e-01 0.000000e+00 0.000000e+00
2.984951e-01 0.000000e+00 0.000000e+00
3.023748e-01 0.000000e+00 0.000000e+00
3.032028e-01 0.000000e+00 0.000000e+00
3.006895e-01 0.000000e+00 0.000000e+00
2.944940e-01 0.000000e+00 0.000000e+00
2.843534e-01 0.000000e+00 0.000000e+00
2.698585e-01 0.000000e+00 0.000000e+00
2.502012e-01 0.000000e+00 0.000000e+00
2.251075e-01 0.000000e+00 0.000000e+00
1.927126e-01 0.000000e+00 0.000000e+00
1.554498e-01 0.000000e+00 0.000000e+00
1.096748e-01 0.000000e+00 0.000000e+00
6.490772e-02 0.000000e+00 0.000000e+00
0.000000e+00 0.000000e+00 0.000000e+00
0.000000e+00 0.000000e+00 -1.084999e-02
-4.895066e-03 0.000000e+00 -1.054393e-02
-3.253354e-03 0.000000e+00 -1.092776e-02
-2.084191e-04 0.000000e+00 -1.049392e-02
3.620426e-03 0.000000e+00 -8.850086e-03
6.623952e-03 0.000000e+00 -7.554166e-03
9.382951e-03 0.000000e+00 -6.644476e-03
1.166211e-02 0.000000e+00 -6.259705e-03
1.415818e-02 0.000000e+00 -6.220614e-03
1.686919e-02 0.000000e+00 -6.568032e-03
2.039325e-02 0.000000e+00 -7.254988e-03
2.519140e-02 0.000000e+00 -8.401374e-03
3.212004e-02 0.000000e+00 -1.000501e-02
4.149595e-02 0.000000e+00 -1.203685e-02
5.358122e-02 0.000000e+00 -1.428654e-02
6.814769e-02 0.000000e+00 -1.659864e-02
8.479723e-02 0.000000e+00 -1.874768e-02
1.029204e-01 0.000000e+00 -2.046974e-02
1.220026e-01 0.000000e+00 -2.153516e-02
1.414905e-01 0.000000e+00 -2.183150e-02
1.609070e-01 0.000000e+00 -2.136572e-02
1.797645e-01 0.000000e+00 -2.027574e-02
1.976080e-01 0.000000e+00 -1.876914e-02
2.140296e-01 0.000000e+00 -1.702673e-02
2.287706e-01 0.000000e+00 -1.514080e-02
2.416209e-01 0.000000e+00 -1.310542e-02
2.524021e-01 0.000000e+00 -1.085189e-02
2.608676e-01 0.000000e+00 -8.348947e-03
2.667837e-01 0.000000e+00 -5.526401e-03
2.697643e-01 0.000000e+00 -2.359789e-03
2.694890e-01 0.000000e+00 1.135305e-03
2.655311e-01 0.000000e+00 4.969735e-03
2.576013e-01 0.000000e+00 9.059339e-03
2.452070e-01 0.000000e+00 1.389777e-02
2.278391e-01 0.000000e+00 1.893965e-02
2.049554e-01 0.000000e+00 2.562720e-02
1.756817e-01 0.000000e+00 3.120975e-02
1.403215e-01 0.000000e+00 3.906585e-02
9.823371e-02 0.000000e+00 4.156028e-02
5.202056e-02 0.000000e+00 4.976848e-02
0.000000e+00 0.000000e+00 6.244382e-02
0.000000e+00 8.346211e-15 -1.084999e-02
-4.895066e-03 1.211641e-14 -1.054393e-02
-3.253354e-03 -2.671132e-14 -1.092776e-02
-2.084191e-04 -2.844452e-15 -1.049392e-02
3.620426e-03 -1.421273e-14 -8.850086e-03
6.623952e-03 3.530981e-14 -7.554166e-03
9.382951e-03 4.402702e-15 -6.644476e-03
1.166211e-02 -2.508367e-14 -6.259705e-03
1.415818e-02 -1.165567e-14 -6.220614e-03
1.686919e-02 1.695477e-14 -6.568032e-03
2.039325e-02 3.830796e-15 -7.254988e-03
2.519140e-02 -5.013641e-14 -8.401374e-03
3.212004e-02 1.814200e-14 -1.000501e-02
4.149595e-02 -2.661831e-14 -1.203685e-02
5.358122e-02 1.066756e-14 -1.428654e-02
6.814769e-02 -2.873023e-14 -1.659864e-02
8.479723e-02 -7.097632e-16 -1.874768e-02
1.029204e-01 1.928703e-15 -2.046974e-02
1.220026e-01 -2.245389e-14 -2.153516e-02
1.414905e-01 -5.216274e-16 -2.183150e-02
1.609070e-01 -1.534401e-14 -2.136572e-02
1.797645e-01 -2.002319e-14 -2.027574e-02
1.976080e-01 -3.210115e-15 -1.876914e-02
2.140296e-01 -1.313601e-14 -1.702673e-02
2.287706e-01 -2.000459e-14 -1.514080e-02
2.416209e-01 2.317286e-15 -1.310542e-02
2.524021e-01 -3.122084e-14 -1.085189e-02
2.608676e-01 1.724402e-14 -8.348947e-03
2.667837e-01 -1.025357e-14 -5.526401e-03
2.697643e-01 -2.178050e-14 -2.359789e-03
2.694890e-01 -8.917145e-15 1.135305e-03
2.655311e-01 -1.173218e-15 4.969735e-03
2.576013e-01 -2.092422e-14 9.059339e-03
2.452070e-01 2.584123e-14 1.389777e-02
2.278391e-01 -3.313099e-14 1.893965e-02
2.049554e-01 2.893137e-15 2.562720e-02
1.756817e-01 1.615674e-14 3.120975e-02
1.403215e-01 1.490077e-14 3.906585e-02
9.823371e-02 -2.796769e-14 4.156028e-02
5.202056e-02 4.172235e-14 4.976848e-02
0.000000e+00 -2.191272e-14 6.244382e-02
0.000000e+00 4.042645e-14 -1.084999e-02
-4.895066e-03 -4.771733e-14 -1.054393e-02
-3.253354e-03 -4.608245e-15 -1.092776e-02
-2.084191e-04 -2.582642e-15 -1.049392e-02
3.620426e-03 3.711508e-14 -8.850086e-03
6.623952e-03 9.903944e-15 -7.554166e-03
9.382951e-03 -4.144880e-14 -6.644476e-03
1.166211e-02 -3.028659e-14 -6.259705e-03
1.415818e-02 4.460503e-14 -6.220614e-03
1.686919e-02 1.136903e-15 -6.568032e-03
2.039325e-02 1.496058e-14 -7.254988e-03
2.519140e-02 -5.372413e-14 -8.401374e-03
3.212004e-02 2.114055e-14 -1.000501e-02
4.149595e-02 -3.328485e-14 -1.203685e-02
5.358122e-02 4.728420e-15 -1.428654e-02
6.814769e-02 -4.548390e-14 -1.659864e-02
8.479723e-02 2.955774e-14 -1.874768e-02
1.029204e-01 -8.245055e-15 -2.046974e-02
1.220026e-01 -1.287733e-14 -2.153516e-02
1.414905e-01 -1.457724e-14 -2.183150e-02
1.609070e-01 -6.333805e-15 -2.136572e-02
1.797645e-01 -4.074992e-14 -2.027574e-02
1.976080e-01 4.230060e-15 -1.876914e-02
2.140296e-01 -2.321072e-14 -1.702673e-02
2.287706e-01 -2.722674e-14 -1.514080e-02
2.416209e-01 -8.336932e-15 -1.310542e-02
2.524021e-01 -4.614026e-14 -1.085189e-02
2.608676e-01 2.103784e-14 -8.348947e-03
2.667837e-01 -9.861358e-15 -5.526401e-03
2.697643e-01 -3.846942e-14 -2.359789e-03
2.694890e-01 -6.748639e-15 1.135305e-03
2.655311e-01 -7.897787e-15 4.969735e-03
2.576013e-01 -1.841911e-14 9.059339e-03
2.452070e-01 3.248604e-14 1.389777e-02
2.278391e-01 -3.777606e-14 1.893965e-02
2.049554e-01 -3.643260e-15 2.562720e-02
1.756817e-01 6.060343e-14 3.120975e-02
1.403215e-01 8.216198e-15 3.906585e-02
9.823371e-02 -2.798984e-14 4.156028e-02
5.202056e-02 3.752388e-14 4.976848e-02
0.000000e+00 -7.063581e-14 6.244382e-02
0.000000e+00 -7.057080e-14 -1.084999e-02
-4.895066e-03 4.167782e-15 -1.054393e-02
-3.253354e-03 -3.869570e-14 -1.092776e-02
-2.084191e-04 -5.029984e-14 -1.049392e-02
3.620426e-03 1.125704e-14 -8.850086e-03
6.623952e-03 2.620323e-14 -7.554166e-03
9.382951e-03 1.245066e-14 -6.644476e-03
1.166211e-02 -3.191772e-14 -6.259705e-03
1.415818e-02 -3.831151e-14 -6.220614e-03
1.686919e-02 1.036736e-14 -6.568032e-03
2.039325e-02 -1.152637e-14 -7.254988e-03
2.519140e-02 -4.270916e-14 -8.401374e-03
3.212004e-02 3.292270e-14 -1.000501e-02
4.149595e-02 -9.209661e-15 -1.203685e-02
5.358122e-02 2.637866e-14 -1.428654e-02
6.814769e-02 -3.676276e-14 -1.659864e-02
8.479723e-02 2.616702e-14 -1.874768e-02
1.029204e-01 -2.207472e-15 -2.046974e-02
1.220026e-01 -2.558559e-14 -2.153516e-02
1.414905e-01 -5.346921e-15 -2.183150e-02
1.609070e-01 -1.430300e-14 -2.136572e-02
1.797645e-01 -3.869285e-14 -2.027574e-02
1.976080e-01 -6.579780e-15 -1.876914e-02
2.140296e-01 -2.055025e-14 -1.702673e-02
2.287706e-01 -3.920150e-14 -1.514080e-02
2.416209e-01 -5.952216e-15 -1.310542e-02
2.524021e-01 -5.831917e-14 -1.085189e-02
2.608676e-01 2.332405e-14 -8.348947e-03
2.667837e-01 -1.598607e-14 -5.526401e-03
2.697643e-01 -4.832289e-14 -2.359789e-03
2.694890e-01 -3.620224e-15 1.135305e-03
2.655311e-01 1.777718e-15 4.969735e-03
2.576013e-01 -1.613856e-14 9.059339e-03
2.452070e-01 4.297499e-14 1.389777e-02
2.278391e-01 -4.388595e-14 1.893965e-02
2.049554e-01 2.128345e-15 2.562720e-02
1.756817e-01 6.252712e-14 3.120975e-02
1.403215e-01 1.443180e-14 3.906585e-02
9.823371e-02 -4.693377e-14 4.156028e-02
5.202056e-02 7.457787e-14 4.976848e-02
0.000000e+00 -8.303975e-14 6.244382e-02
0.000000e+00 -5.894188e-14 -1.084999e-02
-4.895066e-03 -1.360614e-14 -1.054393e-02
-3.253354e-03 -1.785977e-14 -1.092776e-02
-2.084191e-04 -5.366079e-14 -1.049392e-02
3.620426e-03 1.553784e-15 -8.850086e-03
6.623952e-03 4.620869e-14 -7.554166e-03
9.382951e-03 -2.290087e-14 -6.644476e-03
1.166211e-02 -4.978943e-16 -6.259705e-03
1.415818e-02 -2.527998e-14 -6.220614e-03
1.686919e-02 1.421228e-15 -6.568032e-03
2.039325e-02 1.394025e-14 -7.254988e-03
2.519140e-02 -2.508535e-14 -8.401374e-03
3.212004e-02 2.318590e-14 -1.000501e-02
4.149595e-02 -1.652147e-14 -1.203685e-02
5.358122e-02 -1.320959e-14 -1.428654e-02
6.814769e-02 -4.299447e-14 -1.659864e-02
8.479723e-02 -1.705313e-15 -1.874768e-02
1.029204e-01 -6.643649e-15 -2.046974e-02
1.220026e-01 -2.474615e-14 -2.153516e-02
1.414905e-01 3.608956e-15 -2.183150e-02
1.609070e-01 -2.109627e-15 -2.136572e-02
1.797645e-01 -3.551528e-14 -2.027574e-02
1.976080e-01 -1.885414e-15 -1.876914e-02
2.140296e-01 -1.541522e-14 -1.702673e-02
2.287706e-01 -3.471567e-14 -1.514080e-02
2.416209e-01 -2.728854e-15 -1.310542e-02
2.524021e-01 -5.283918e-14 -1.085189e-02
2.608676e-01 1.849701e-14 -8.348947e-03
2.667837e-01 -1.787307e-14 -5.526401e-03
2.697643e-01 -4.089990e-14 -2.359789e-03
2.694890e-01 -3.118532e-15 1.135305e-03
2.655311e-01 4.881150e-15 4.969735e-03
2.576013e-01 -9.114096e-15 9.059339e-03
2.452070e-01 3.962127e-14 1.389777e-02
2.278391e-01 -3.698639e-14 1.893965e-02
2.049554e-01 -8.478148e-15 2.562720e-02
1.756817e-01 5.120959e-14 3.120975e-02
1.403215e-01 -9.430678e-15 3.906585e-02
9.823371e-02 -3.134480e-14 4.156028e-02
5.202056e-02 7.139345e-14 4.976848e-02
0.000000e+00 -3.214032e-14 6.244382e-02
0.000000e+00 1.141639e-15 -1.084999e-02
-4.895066e-03 -5.609238e-14 -1.054393e-02
-3.253354e-03 -4.640917e-15 -1.092776e-02
-2.084191e-04 1.932107e-15 -1.049392e-02
3.620426e-03 -8.526586e-15 -8.850086e-03
6.623952e-03 1.712761e-14 -7.554166e-03
9.382951e-03 -2.662740e-14 -6.644476e-03
1.166211e-02 9.451592e-15 -6.259705e-03
1.415818e-02 -7.088702e-15 -6.220614e-03