# vtk DataFile Version 3.0
vtk output
ASCII
DATASET UNSTRUCTURED_GRID
POINTS 11767 float
0.000000e+00 0.000000e+00 0.000000e+00
1.460000e-02 0.000000e+00 0.000000e+00
2.920000e-02 0.000000e+00 0.000000e+00
4.380000e-02 0.000000e+00 0.000000e+00
5.840000e-02 0.000000e+00 0.000000e+00
7.300000e-02 0.000000e+00 0.000000e+00
8.760000e-02 0.000000e+00 0.000000e+00
1.022000e-01 0.000000e+00 0.000000e+00
1.168000e-01 0.000000e+00 0.000000e+00
1.314000e-01 0.000000e+00 0.000000e+00
1.460000e-01 0.000000e+00 0.000000e+00
1.606000e-01 0.000000e+00 0.000000e+00
1.752000e-01 0.000000e+00 0.000000e+00
1.898000e-01 0.000000e+00 0.000000e+00
2.044000e-01 0.000000e+00 0.000000e+00
2.190000e-01 0.000000e+00 0.000000e+00
2.336000e-01 0.000000e+00 0.000000e+00
2.482000e-01 0.000000e+00 0.000000e+00
2.628000e-01 0.000000e+00 0.000000e+00
2.774000e-01 0.000000e+00 0.000000e+00
2.920000e-01 0.000000e+00 0.000000e+00
3.066000e-01 0.000000e+00 0.000000e+00
3.212000e-01 0.000000e+00 0.000000e+00
3.358000e-01 0.000000e+00 0.000000e+00
3.504000e-01 0.000000e+00 0.000000e+00
3.650000e-01 0.000000e+00 0.000000e+00
3.796000e-01 0.000000e+00 0.000000e+00
3.942000e-01 0.000000e+00 0.000000e+00
4.088000e-01 0.000000e+00 0.000000e+00
4.234000e-01 0.000000e+00 0.000000e+00
4.380000e-01 0.000000e+00 0.000000e+00
4.526000e-01 0.000000e+00 0.000000e+00
4.672000e-01 0.000000e+00 0.000000e+00
4.818000e-01 0.000000e+00 0.000000e+00
4.964000e-01 0.000000e+00 0.000000e+00
5.110000e-01 0.000000e+00 0.000000e+00
5.256000e-01 0.000000e+00 0.000000e+00
5.402000e-01 0.000000e+00 0.000000e+00
5.548000e-01 0.000000e+00 0.000000e+00
5.694000e-01 0.000000e+00 0.000000e+00
5.840000e-01 0.000000e+00 0.000000e+00
0.000000e+00 1.460000e-02 0.000000e+00
1.460000e-02 1.460000e-02 0.000000e+00
2.920000e-02 1.460000e-02 0.000000e+00
4.380000e-02 1.460000e-02 0.000000e+00
5.840000e-02 1.460000e-02 0.000000e+00
7.300000e-02 1.460000e-02 0.000000e+00
8.760000e-02 1.460000e-02 0.000000e+00
1.022000e-01 1.460000e-02 0.000000e+00
1.168000e-01 1.460000e-02 0.000000e+00
1.314000e-01 1.460000e-02 0.000000e+00
1.460000e-01 1.460000e-02 0.000000e+00
1.606000e-01 1.460000e-02 0.000000e+00
1.752000e-01 1.460000e-02 0.000000e+00
1.898000e-01 1.460000e-02 0.000000e+00
2.044000e-01 1.460000e-02 0.000000e+00
2.190000e-01 1.460000e-02 0.000000e+00
2.336000e-01 1.460000e-02 0.000000e+00
2.482000e-01 1.460000e-02 0.000000e+00
2.628000e-01 1.460000e-02 0.000000e+00
2.774000e-01 1.460000e-02 0.000000e+00
2.920000e-01 1.460000e-02 0.000000e+00
3.066000e-01 1.460000e-02 0.000000e+00
3.212000e-01 1.460000e-02 0.000000e+00
3.358000e-01 1.460000e-02 0.000000e+00
3.504000e-01 1.460000e-02 0.000000e+00
3.650000e-01 1.460000e-02 0.000000e+00
3.796000e-01 1.460000e-02 0.000000e+00
3.942000e-01 1.460000e-02 0.000000e+00
4.088000e-01 1.460000e-02 0.000000e+00
4.234000e-01 1.460000e-02 0.000000e+00
4.380000e-01 1.460000e-02 0.000000e+00
4.526000e-01 1.460000e-02 0.000000e+00
4.672000e-01 1.460000e-02 0.000000e+00
4.818000e-01 1.460000e-02 0.000000e+00
4.964000e-01 1.460000e-02 0.000000e+00
5.110000e-01 1.460000e-02 0.000000e+00
5.256000e-01 1.460000e-02 0.000000e+00
5.402000e-01 1.460000e-02 0.000000e+00
5.548000e-01 1.460000e-02 0.000000e+00
5.694000e-01 1.460000e-02 0.000000e+00
5.840000e-01 1.460000e-02 0.000000e+00
0.000000e+00 2.920000e-02 0.000000e+00
1.460000e-02 2.920000e-02 0.000000e+00
2.920000e-02 2.920000e-02 0.000000e+00
4.380000e-02 2.920000e-02 0.000000e+00
5.840000e-02 2.920000e-02 0.000000e+00
7.300000e-02 2.920000e-02 0.000000e+00
8.760000e-02 2.920000e-02 0.000000e+00
1.022000e-01 2.920000e-02 0.000000e+00
1.168000e-01 2.920000e-02 0.000000e+00
1.314000e-01 2.920000e-02 0.000000e+00
1.460000e-01 2.920000e-02 0.000000e+00
1.606000e-01 2.920000e-02 0.000000e+00
1.752000e-01 2.920000e-02 0.000000e+00
1.898000e-01 2.920000e-02 0.000000e+00
2.044000e-01 2.920000e-02 0.000000e+00
2.190000e-01 2.920000e-02 0.000000e+00
2.336000e-01 2.920000e-02 0.000000e+00
2.482000e-01 2.920000e-02 0.000000e+00
2.628000e-01 2.920000e-02 0.000000e+00
2.774000e-01 2.920000e-02 0.000000e+00
2.920000e-01 2.920000e-02 0.000000e+00
3.066000e-01 2.920000e-02 0.000000e+00
3.212000e-01 2.920000e-02 0.000000e+00
3.358000e-01 2.920000e-02 0.000000e+00
3.504000e-01 2.920000e-02 0.000000e+00
3.650000e-01 2.920000e-02 0.000000e+00
3.796000e-01 2.920000e-02 0.000000e+00
3.942000e-01 2.920000e-02 0.000000e+00
4.088000e-01 2.920000e-02 0.000000e+00
4.234000e-01 2.920000e-02 0.000000e+00
4.380000e-01 2.920000e-02 0.000000e+00
4.526000e-01 2.920000e-02 0.000000e+00
4.672000e-01 2.920000e-02 0.000000e+00
4.818000e-01 2.920000e-02 0.000000e+00
4.964000e-01 2.920000e-02 0.000000e+00
5.110000e-01 2.920000e-02 0.000000e+00
5.256000e-01 2.920000e-02 0.000000e+00
5.402000e-01 2.920000e-02 0.000000e+00
5.548000e-01 2.920000e-02 0.000000e+00
5.694000e-01 2.920000e-02 0.000000e+00
5.840000e-01 2.920000e-02 0.000000e+00
0.000000e+00 4.380000e-02 0.000000e+00
1.460000e-02 4.380000e-02 0.000000e+00
2.920000e-02 4.380000e-02 0.000000e+00
4.380000e-02 4.380000e-02 0.000000e+00
5.840000e-02 4.380000e-02 0.000000e+00
7.300000e-02 4.380000e-02 0.000000e+00
8.760000e-02 4.380000e-02 0.000000e+00
1.022000e-01 4.380000e-02 0.000000e+00
1.168000e-01 4.380000e-02 0.000000e+00
1.314000e-01 4.380000e-02 0.000000e+00
1.460000e-01 4.380000e-02 0.000000e+00
1.606000e-01 4.380000e-02 0.000000e+00
1.752000e-01 4.380000e-02 0.000000e+00
1.898000e-01 4.380000e-02 0.000000e+00
2.044000e-01 4.380000e-02 0.000000e+00
2.190000e-01 4.380000e-02 0.000000e+00
2.336000e-01 4.380000e-02 0.000000e+00
2.482000e-01 4.380000e-02 0.000000e+00
2.628000e-01 4.380000e-02 0.000000e+00
2.774000e-01 4.380000e-02 0.000000e+00
2.920000e-01 4.380000e-02 0.000000e+00
3.066000e-01 4.380000e-02 0.000000e+00
3.212000e-01 4.380000e-02 0.000000e+00
3.358000e-01 4.380000e-02 0.000000e+00
3.504000e-01 4.380000e-02 0.000000e+00
3.650000e-01 4.380000e-02 0.000000e+00
3.796000e-01 4.380000e-02 0.000000e+00
3.942000e-01 4.380000e-02 0.000000e+00
4.088000e-01 4.380000e-02 0.000000e+00
4.234000e-01 4.380000e-02 0.000000e+00
4.380000e-01 4.380000e-02 0.000000e+00
4.526000e-01 4.380000e-02 0.000000e+00
4.672000e-01 4.380000e-02 0.000000e+00
4.818000e-01 4.380000e-02 0.000000e+00
4.964000e-01 4.380000e-02 0.000000e+00
5.110000e-01 4.380000e-02 0.000000e+00
5.256000e-01 4.380000e-02 0.000000e+00
5.402000e-01 4.380000e-02 0.000000e+00
5.548000e-01 4.380000e-02 0.000000e+00
5.694000e-01 4.380000e-02 0.000000e+00
5.840000e-01 4.380000e-02 0.000000e+00
0.000000e+00 5.840000e-02 0.000000e+00
1.460000e-02 5.840000e-02 0.000000e+00
2.920000e-02 5.840000e-02 0.000000e+00
4.380000e-02 5.840000e-02 0.000000e+00
5.840000e-02 5.840000e-02 0.000000e+00
7.300000e-02 5.840000e-02 0.000000e+00
8.760000e-02 5.840000e-02 0.000000e+00
1.022000e-01 5.840000e-02 0.000000e+00
1.168000e-01 5.840000e-02 0.000000e+00
1.314000e-01 5.840000e-02 0.000000e+00
1.460000e-01 5.840000e-02 0.000000e+00
1.606000e-01 5.840000e-02 0.000000e+00
1.752000e-01 5.840000e-02 0.000000e+00
1.898000e-01 5.840000e-02 0.000000e+00
2.044000e-01 5.840000e-02 0.000000e+00
2.190000e-01 5.840000e-02 0.000000e+00
2.336000e-01 5.840000e-02 0.000000e+00
2.482000e-01 5.840000e-02 0.000000e+00
2.628000e-01 5.840000e-02 0.000000e+00
2.774000e-01 5.840000e-02 0.000000e+00
2.920000e-01 5.840000e-02 0.000000e+00
3.066000e-01 5.840000e-02 0.000000e+00
3.212000e-01 5.840000e-02 0.000000e+00
3.358000e-01 5.840000e-02 0.000000e+00
3.504000e-01 5.840000e-02 0.000000e+00
3.650000e-01 5.840000e-02 0.000000e+00
3.796000e-01 5.840000e-02 0.000000e+00
3.942000e-01 5.840000e-02 0.000000e+00
4.088000e-01 5.840000e-02 0.000000e+00
4.234000e-01 5.840000e-02 0.000000e+00
4.380000e-01 5.840000e-02 0.000000e+00
4.526000e-01 5.840000e-02 0.000000e+00
4.672000e-01 5.840000e-02 0.000000e+00
4.818000e-01 5.840000e-02 0.000000e+00
4.964000e-01 5.840000e-02 0.000000e+00
5.110000e-01 5.840000e-02 0.000000e+00
5.256000e-01 5.840000e-02 0.000000e+00
5.402000e-01 5.840000e-02 0.000000e+00
5.548000e-01 5.840000e-02 0.000000e+00
5.694000e-01 5.840000e-02 0.000000e+00
5.840000e-01 5.840000e-02 0.000000e+00
0.000000e+00 7.300000e-02 0.000000e+00
1.460000e-02 7.300000e-02 0.000000e+00
2.920000e-02 7.300000e-02 0.000000e+00
4.380000e-02 7.300000e-02 0.000000e+00
5.840000e-02 7.300000e-02 0.000000e+00
7.300000e-02 7.300000e-02 0.000000e+00
8.760000e-02 7.300000e-02 0.000000e+00
1.022000e-01 7.300000e-02 0.000000e+00
1.168000e-01 7.300000e-02 0.000000e+00
1.314000e-01 7.300000e-02 0.000000e+00
1.460000e-01 7.300000e-02 0.000000e+00
1.606000e-01 7.300000e-02 0.000000e+00
1.752000e-01 7.300000e-02 0.000000e+00
1.898000e-01 7.300000e-02 0.000000e+00
2.044000e-01 7.300000e-02 0.000000e+00
2.190000e-01 7.300000e-02 0.000000e+00
2.336000e-01 7.300000e-02 0.000000e+00
2.482000e-01 7.300000e-02 0.000000e+00
2.628000e-01 7.300000e-02 0.000000e+00
2.774000e-01 7.300000e-02 0.000000e+00
2.920000e-01 7.300000e-02 0.000000e+00
3.066000e-01 7.300000e-02 0.000000e+00
3.212000e-01 7.300000e-02 0.000000e+00
3.358000e-01 7.300000e-02 0.000000e+00
3.504000e-01 7.300000e-02 0.000000e+00
3.650000e-01 7.300000e-02 0.000000e+00
3.796000e-01 7.300000e-02 0.000000e+00
3.942000e-01 7.300000e-02 0.000000e+00
4.088000e-01 7.300000e-02 0.000000e+00
4.234000e-01 7.300000e-02 0.000000e+00
4.380000e-01 7.300000e-02 0.000000e+00
4.526000e-01 7.300000e-02 0.000000e+00
4.672000e-01 7.300000e-02 0.000000e+00
4.818000e-01 7.300000e-02 0.000000e+00
4.964000e-01 7.300000e-02 0.000000e+00
5.110000e-01 7.300000e-02 0.000000e+00
5.256000e-01 7.300000e-02 0.000000e+00
5.402000e-01 7.300000e-02 0.000000e+00
5.548000e-01 7.300000e-02 0.000000e+00
5.694000e-01 7.300000e-02 0.000000e+00
5.840000e-01 7.300000e-02 0.000000e+00
0.000000e+00 8.760000e-02 0.000000e+00
1.460000e-02 8.760000e-02 0.000000e+00
2.920000e-02 8.760000e-02 0.000000e+00
4.380000e-02 8.760000e-02 0.000000e+00
5.840000e-02 8.760000e-02 0.000000e+00
7.300000e-02 8.760000e-02 0.000000e+00
8.760000e-02 8.760000e-02 0.000000e+00
1.022000e-01 8.760000e-02 0.000000e+00
[...]
POINT_DATA 11767
VECTORS Velocity float
0.000000e+00 0.000000e+00 0.000000e+00
2.837441e-02 0.000000e+00 0.000000e+00
5.716908e-02 0.000000e+00 0.000000e+00
8.740778e-02 0.000000e+00 0.000000e+00
1.201496e-01 0.000000e+00 0.000000e+00
1.566756e-01 0.000000e+00 0.000000e+00
1.997879e-01 0.000000e+00 0.000000e+00
2.534531e-01 0.000000e+00 0.000000e+00
3.267137e-01 0.000000e+00 0.000000e+00
4.235450e-01 0.000000e+00 0.000000e+00
5.384031e-01 0.000000e+00 0.000000e+00
6.660619e-01 0.000000e+00 0.000000e+00
8.009338e-01 0.000000e+00 0.000000e+00
9.347980e-01 0.000000e+00 0.000000e+00
9.330015e-01 0.000000e+00 0.000000e+00
6.492013e-01 0.000000e+00 0.000000e+00
4.972301e-01 0.000000e+00 0.000000e+00
3.744201e-01 0.000000e+00 0.000000e+00
3.259375e-01 0.000000e+00 0.000000e+00
2.605829e-01 0.000000e+00 0.000000e+00
2.394021e-01 0.000000e+00 0.000000e+00
1.960166e-01 0.000000e+00 0.000000e+00
1.839046e-01 0.000000e+00 0.000000e+00
1.522154e-01 0.000000e+00 0.000000e+00
1.439772e-01 0.000000e+00 0.000000e+00
1.197571e-01 0.000000e+00 0.000000e+00
1.134314e-01 0.000000e+00 0.000000e+00
9.441014e-02 0.000000e+00 0.000000e+00
8.909781e-02 0.000000e+00 0.000000e+00
7.386739e-02 0.000000e+00 0.000000e+00
6.908830e-02 0.000000e+00 0.000000e+00
5.669859e-02 0.000000e+00 0.000000e+00
5.215484e-02 0.000000e+00 0.000000e+00
4.192879e-02 0.000000e+00 0.000000e+00
3.740402e-02 0.000000e+00 0.000000e+00
2.884064e-02 0.000000e+00 0.000000e+00
2.415189e-02 0.000000e+00 0.000000e+00
1.687031e-02 0.000000e+00 0.000000e+00
1.184289e-02 0.000000e+00 0.000000e+00
5.549378e-03 0.000000e+00 0.000000e+00
0.000000e+00 0.000000e+00 0.000000e+00
0.000000e+00 7.523992e-16 0.000000e+00
2.837441e-02 -7.466095e-16 0.000000e+00
5.716908e-02 -5.028435e-16 0.000000e+00
8.740778e-02 1.229677e-15 0.000000e+00
1.201496e-01 4.325149e-16 0.000000e+00
1.566756e-01 -7.176856e-17 0.000000e+00
1.997879e-01 -5.654621e-16 0.000000e+00
2.534531e-01 2.239550e-15 0.000000e+00
3.267137e-01 -6.146391e-16 0.000000e+00
4.235450e-01 -3.614531e-16 0.000000e+00
5.384031e-01 6.779005e-16 0.000000e+00
6.660619e-01 3.387972e-16 0.000000e+00
8.009338e-01 3.269984e-15 0.000000e+00
9.347980e-01 1.082861e-15 0.000000e+00
9.330015e-01 2.434994e-16 0.000000e+00
6.492013e-01 6.299026e-15 0.000000e+00
4.972301e-01 -1.277609e-14 0.000000e+00
3.744201e-01 1.212379e-14 0.000000e+00
3.259375e-01 -6.473346e-15 0.000000e+00
2.605829e-01 -7.441433e-15 0.000000e+00
2.394021e-01 8.649621e-15 0.000000e+00
1.960166e-01 -7.717984e-15 0.000000e+00
1.839046e-01 9.135770e-15 0.000000e+00
1.522154e-01 -1.447809e-14 0.000000e+00
1.439772e-01 4.111853e-15 0.000000e+00
1.197571e-01 7.975076e-15 0.000000e+00
1.134314e-01 -2.029994e-14 0.000000e+00
9.441014e-02 2.514178e-14 0.000000e+00
8.909781e-02 -9.828131e-15 0.000000e+00
7.386739e-02 3.325057e-15 0.000000e+00
6.908830e-02 6.455068e-15 0.000000e+00
5.669859e-02 -7.055818e-15 0.000000e+00
5.215484e-02 -1.036977e-14 0.000000e+00
4.192879e-02 2.475535e-14 0.000000e+00
3.740402e-02 -1.874492e-14 0.000000e+00
2.884064e-02 2.140760e-14 0.000000e+00
2.415189e-02 -2.070795e-14 0.000000e+00
1.687031e-02 2.537985e-14 0.000000e+00
1.184289e-02 -4.924972e-14 0.000000e+00
5.549378e-03 5.039371e-14 0.000000e+00
0.000000e+00 -4.103397e-14 0.000000e+00
0.000000e+00 -3.089915e-16 0.000000e+00
2.837441e-02 6.643481e-16 0.000000e+00
5.716908e-02 -2.125627e-16 0.000000e+00
8.740778e-02 -5.499292e-16 0.000000e+00
1.201496e-01 -1.023704e-15 0.000000e+00
1.566756e-01 -5.988651e-16 0.000000e+00
1.997879e-01 3.861403e-17 0.000000e+00
2.534531e-01 -7.364018e-16 0.000000e+00
3.267137e-01 -1.923971e-16 0.000000e+00
4.235450e-01 -3.803367e-16 0.000000e+00
5.384031e-01 1.089700e-15 0.000000e+00
6.660619e-01 -1.444139e-15 0.000000e+00
8.009338e-01 1.868559e-15 0.000000e+00
9.347980e-01 -1.514416e-15 0.000000e+00
9.330015e-01 5.737809e-15 0.000000e+00
6.492013e-01 4.498307e-15 0.000000e+00
4.972301e-01 -1.019975e-14 0.000000e+00
3.744201e-01 1.317719e-14 0.000000e+00
3.259375e-01 -6.857648e-15 0.000000e+00
2.605829e-01 -3.376910e-15 0.000000e+00
2.394021e-01 1.655502e-14 0.000000e+00
1.960166e-01 -1.189789e-14 0.000000e+00
1.839046e-01 1.436868e-14 0.000000e+00
1.522154e-01 -2.356688e-14 0.000000e+00
1.439772e-01 1.136365e-14 0.000000e+00
1.197571e-01 -9.049313e-15 0.000000e+00
1.134314e-01 -8.081353e-15 0.000000e+00
9.441014e-02 2.467635e-14 0.000000e+00
8.909781e-02 -1.086099e-14 0.000000e+00
7.386739e-02 1.354003e-15 0.000000e+00
6.908830e-02 -5.345049e-15 0.000000e+00
5.669859e-02 -1.928660e-15 0.000000e+00
5.215484e-02 5.457479e-15 0.000000e+00
4.192879e-02 7.845867e-15 0.000000e+00
3.740402e-02 -7.247428e-16 0.000000e+00
2.884064e-02 -5.347276e-15 0.000000e+00
2.415189e-02 1.368782e-15 0.000000e+00
1.687031e-02 -1.187651e-14 0.000000e+00
1.184289e-02 1.180729e-14 0.000000e+00
5.549378e-03 8.879378e-15 0.000000e+00
0.000000e+00 -2.565105e-14 0.000000e+00
0.000000e+00 1.032736e-15 0.000000e+00
2.837441e-02 -1.236779e-15 0.000000e+00
5.716908e-02 1.504717e-15 0.000000e+00
8.740778e-02 1.014061e-15 0.000000e+00
1.201496e-01 4.993460e-17 0.000000e+00
1.566756e-01 6.746813e-16 0.000000e+00
1.997879e-01 1.189324e-17 0.000000e+00
2.534531e-01 1.417727e-15 0.000000e+00
3.267137e-01 1.856518e-16 0.000000e+00
4.235450e-01 9.303873e-16 0.000000e+00
5.384031e-01 1.446551e-15 0.000000e+00
6.660619e-01 4.112486e-16 0.000000e+00
8.009338e-01 2.268309e-15 0.000000e+00
9.347980e-01 -2.083042e-15 0.000000e+00
9.330015e-01 7.633428e-15 0.000000e+00
6.492013e-01 9.873099e-15 0.000000e+00
4.972301e-01 -8.377066e-15 0.000000e+00
3.744201e-01 1.251989e-14 0.000000e+00
3.259375e-01 -6.353031e-15 0.000000e+00
2.605829e-01 -3.830361e-15 0.000000e+00
2.394021e-01 1.433079e-14 0.000000e+00
1.960166e-01 -1.622044e-14 0.000000e+00
1.839046e-01 1.623003e-14 0.000000e+00
1.522154e-01 -1.726761e-14 0.000000e+00
1.439772e-01 2.032569e-14 0.000000e+00
1.197571e-01 3.965751e-15 0.000000e+00
1.134314e-01 -1.755703e-14 0.000000e+00
9.441014e-02 2.980371e-14 0.000000e+00
8.909781e-02 -1.216831e-14 0.000000e+00
7.386739e-02 3.966723e-15 0.000000e+00
6.908830e-02 1.297827e-15 0.000000e+00
5.669859e-02 -8.286505e-15 0.000000e+00
5.215484e-02 -4.179827e-15 0.000000e+00
4.192879e-02 2.149266e-14 0.000000e+00
3.740402e-02 -9.500727e-15 0.000000e+00
2.884064e-02 1.556099e-14 0.000000e+00
2.415189e-02 -1.671048e-14 0.000000e+00
1.687031e-02 2.009758e-14 0.000000e+00
1.184289e-02 -2.946873e-14 0.000000e+00
5.549378e-03 4.894194e-14 0.000000e+00
0.000000e+00 -3.871087e-14 0.000000e+00
0.000000e+00 -1.798441e-15 0.000000e+00
2.837441e-02 3.235960e-15 0.000000e+00
5.716908e-02 -1.011384e-15 0.000000e+00
8.740778e-02 1.714272e-16 0.000000e+00
1.201496e-01 -5.378805e-16 0.000000e+00
1.566756e-01 7.323737e-16 0.000000e+00
1.997879e-01 -2.212256e-15 0.000000e+00
2.534531e-01 1.973711e-15 0.000000e+00
3.267137e-01 -7.873624e-16 0.000000e+00
4.235450e-01 -7.487732e-16 0.000000e+00
5.384031e-01 8.593868e-16 0.000000e+00
6.660619e-01 -4.217859e-17 0.000000e+00
8.009338e-01 2.900146e-15 0.000000e+00
9.347980e-01 -2.696332e-15 0.000000e+00
9.330015e-01 3.151787e-15 0.000000e+00
6.492013e-01 8.600852e-15 0.000000e+00
4.972301e-01 -6.565208e-15 0.000000e+00
3.744201e-01 1.001333e-14 0.000000e+00
3.259375e-01 -7.769835e-15 0.000000e+00
2.605829e-01 -1.052205e-15 0.000000e+00
2.394021e-01 1.589882e-14 0.000000e+00
1.960166e-01 -1.665613e-14 0.000000e+00
1.839046e-01 2.821227e-14 0.000000e+00
1.522154e-01 -3.212776e-14 0.000000e+00
1.439772e-01 1.871041e-14 0.000000e+00
1.197571e-01 -1.121970e-14 0.000000e+00
1.134314e-01 -2.174771e-15 0.000000e+00
9.441014e-02 2.503849e-14 0.000000e+00
8.909781e-02 -1.357268e-14 0.000000e+00
7.386739e-02 6.934304e-15 0.000000e+00
6.908830e-02 -3.459657e-15 0.000000e+00
5.669859e-02 2.280520e-15 0.000000e+00
5.215484e-02 -5.425581e-16 0.000000e+00
4.192879e-02 1.590865e-14 0.000000e+00
3.740402e-02 -4.072837e-15 0.000000e+00
2.884064e-02 -3.810829e-15 0.000000e+00
2.415189e-02 2.590025e-15 0.000000e+00
1.687031e-02 -9.908722e-15 0.000000e+00
1.184289e-02 1.079030e-14 0.000000e+00
5.549378e-03 1.238948e-14 0.000000e+00
0.000000e+00 -2.348244e-14 0.000000e+00
0.000000e+00 -1.053513e-15 0.000000e+00
2.837441e-02 -1.412721e-15 0.000000e+00
5.716908e-02 -4.893519e-16 0.000000e+00
8.740778e-02 3.527360e-16 0.000000e+00
1.201496e-01 -1.905335e-15 0.000000e+00
1.566756e-01 1.097032e-15 0.000000e+00
1.997879e-01 -1.757947e-15 0.000000e+00
2.534531e-01 6.260783e-16 0.000000e+00
3.267137e-01 -4.678916e-16 0.000000e+00
4.235450e-01 -3.895793e-16 0.000000e+00
5.384031e-01 -3.551788e-16 0.000000e+00
6.660619e-01 -1.340074e-15 0.000000e+00
8.009338e-01 3.129194e-16 0.000000e+00
9.347980e-01 -5.143085e-15 0.000000e+00
9.330015e-01 -3.357418e-16 0.000000e+00
6.492013e-01 4.674591e-15 0.000000e+00
4.972301e-01 -1.236951e-14 0.000000e+00
3.744201e-01 9.356888e-15 0.000000e+00
3.259375e-01 -1.077807e-14 0.000000e+00
2.605829e-01 -1.081902e-14 0.000000e+00
2.394021e-01 2.357604e-15 0.000000e+00
1.960166e-01 -5.195588e-15 0.000000e+00
1.839046e-01 2.047888e-15 0.000000e+00
1.522154e-01 -1.274297e-14 0.000000e+00
1.439772e-01 6.627924e-15 0.000000e+00
1.197571e-01 9.708109e-15 0.000000e+00
1.134314e-01 -2.782281e-14 0.000000e+00
9.441014e-02 2.564456e-14 0.000000e+00
8.909781e-02 -1.738361e-14 0.000000e+00
7.386739e-02 -1.065876e-15 0.000000e+00
6.908830e-02 -1.914129e-15 0.000000e+00
5.669859e-02 -1.650217e-14 0.000000e+00
5.215484e-02 -5.829786e-15 0.000000e+00
4.192879e-02 1.823720e-14 0.000000e+00
3.740402e-02 -2.172530e-14 0.000000e+00
2.884064e-02 2.015351e-14 0.000000e+00
2.415189e-02 -2.618453e-14 0.000000e+00
1.687031e-02 2.596910e-14 0.000000e+00
1.184289e-02 -4.951984e-14 0.000000e+00
5.549378e-03 4.752635e-14 0.000000e+00
0.000000e+00 -4.281861e-14 0.000000e+00
0.000000e+00 0.000000e+00 0.000000e+00
2.837441e-02 0.000000e+00 0.000000e+00
5.716908e-02 0.000000e+00 0.000000e+00
8.740778e-02 0.000000e+00 0.000000e+00
1.201496e-01 0.000000e+00 0.000000e+00
1.566756e-01 0.000000e+00 0.000000e+00
1.997879e-01 0.000000e+00 0.000000e+00
2.534531e-01 0.000000e+00 0.000000e+00
3.267137e-01 0.000000e+00 0.000000e+00
4.235450e-01 0.000000e+00 0.000000e+00
5.384031e-01 0.000000e+00 0.000000e+00
6.660619e-01 0.000000e+00 0.000000e+00
8.009338e-01 0.000000e+00 0.000000e+00
9.347980e-01 0.000000e+00 0.000000e+00
9.330015e-01 0.000000e+00 0.000000e+00
6.492013e-01 0.000000e+00 0.000000e+00
4.972301e-01 0.000000e+00 0.000000e+00
3.744201e-01 0.000000e+00 0.000000e+00
3.259375e-01 0.000000e+00 0.000000e+00
2.605829e-01 0.000000e+00 0.000000e+00
2.394021e-01 0.000000e+00 0.000000e+00
1.960166e-01 0.000000e+00 0.000000e+00
1.839046e-01 0.000000e+00 0.000000e+00
1.522154e-01 0.000000e+00 0.000000e+00
1.439772e-01 0.000000e+00 0.000000e+00
1.197571e-01 0.000000e+00 0.000000e+00
1.134314e-01 0.000000e+00 0.000000e+00
9.441014e-02 0.000000e+00 0.000000e+00
8.909781e-02 0.000000e+00 0.000000e+00
7.386739e-02 0.000000e+00 0.000000e+00
6.908830e-02 0.000000e+00 0.000000e+00
5.669859e-02 0.000000e+00 0.000000e+00
5.215484e-02 0.000000e+00 0.000000e+00
4.192879e-02 0.000000e+00 0.000000e+00
3.740402e-02 0.000000e+00 0.000000e+00
2.884064e-02 0.000000e+00 0.000000e+00
2.415189e-02 0.000000e+00 0.000000e+00
1.687031e-02 0.000000e+00 0.000000e+00
1.184289e-02 0.000000e+00 0.000000e+00
5.549378e-03 0.000000e+00 0.000000e+00
0.000000e+00 0.000000e+00 0.000000e+00
0.000000e+00 0.000000e+00 -3.042392e-02
2.769306e-02 0.000000e+00 -3.063532e-02
5.603278e-02 0.000000e+00 -3.150899e-02
8.565111e-02 0.000000e+00 -3.340647e-02
1.174280e-01 0.000000e+00 -3.622898e-02
1.524192e-01 0.000000e+00 -4.089241e-02
1.921836e-01 0.000000e+00 -4.801426e-02
2.388190e-01 0.000000e+00 -6.055169e-02
2.953086e-01 0.000000e+00 -7.981621e-02
3.632334e-01 0.000000e+00 -9.744607e-02
4.401210e-01 0.000000e+00 -1.108004e-01
5.247417e-01 0.000000e+00 -1.178115e-01
6.146093e-01 0.000000e+00 -1.296825e-01
7.042406e-01 0.000000e+00 -9.307915e-02
6.862030e-01 0.000000e+00 1.603603e-01
5.012610e-01 0.000000e+00 2.073900e-01
4.409242e-01 0.000000e+00 1.019923e-01
3.440965e-01 0.000000e+00 7.500967e-02
3.141635e-01 0.000000e+00 4.803214e-02
2.526851e-01 0.000000e+00 3.963495e-02
2.356926e-01 0.000000e+00 2.793535e-02
1.932181e-01 0.000000e+00 2.541328e-02
1.821899e-01 0.000000e+00 1.864858e-02
1.510135e-01 0.000000e+00 1.778703e-02
1.429917e-01 0.000000e+00 1.339531e-02
1.191764e-01 0.000000e+00 1.306027e-02
1.128003e-01 0.000000e+00 1.004587e-02
9.410873e-02 0.000000e+00 9.893366e-03
8.867495e-02 0.000000e+00 7.757941e-03
7.370772e-02 0.000000e+00 7.678723e-03
6.880408e-02 0.000000e+00 6.137360e-03
5.661958e-02 0.000000e+00 6.100919e-03
5.197103e-02 0.000000e+00 4.976997e-03
4.190059e-02 0.000000e+00 4.981199e-03
3.729706e-02 0.000000e+00 4.158966e-03
2.884639e-02 0.000000e+00 4.212728e-03
2.410497e-02 0.000000e+00 3.613014e-03
1.689646e-02 0.000000e+00 3.730522e-03
1.183813e-02 0.000000e+00 3.296650e-03
5.571217e-03 0.000000e+00 3.496838e-03
0.000000e+00 0.000000e+00 3.192770e-03
0.000000e+00 -1.132313e-16 -3.042392e-02
2.769306e-02 8.761859e-16 -3.063532e-02
5.603278e-02 -2.793467e-16 -3.150899e-02
8.565111e-02 8.146328e-17 -3.340647e-02
1.174280e-01 -1.065272e-15 -3.622898e-02
1.524192e-01 1.056315e-17 -4.089241e-02
1.921836e-01 -2.526854e-17 -4.801426e-02
2.388190e-01 -5.847151e-16 -6.055169e-02
2.953086e-01 2.980793e-16 -7.981621e-02
3.632334e-01 1.051412e-15 -9.744607e-02
4.401210e-01 4.190970e-16 -1.108004e-01
5.247417e-01 -1.135480e-15 -1.178115e-01
6.146093e-01 4.689808e-15 -1.296825e-01
7.042406e-01 1.751473e-15 -9.307915e-02
6.862030e-01 -1.071339e-15 1.603603e-01
5.012610e-01 8.349158e-15 2.073900e-01
4.409242e-01 -1.408471e-14 1.019923e-01
3.440965e-01 1.223799e-14 7.500967e-02
3.141635e-01 -7.537041e-15 4.803214e-02
2.526851e-01 -2.457368e-15 3.963495e-02
2.356926e-01 4.990504e-15 2.793535e-02
1.932181e-01 -2.602886e-15 2.541328e-02
1.821899e-01 7.246541e-15 1.864858e-02
1.510135e-01 -1.472866e-14 1.778703e-02
1.429917e-01 2.059664e-14 1.339531e-02
1.191764e-01 -6.423362e-15 1.306027e-02
1.128003e-01 2.814944e-15 1.004587e-02
9.410873e-02 3.141262e-15 9.893366e-03
8.867495e-02 -6.753863e-15 7.757941e-03
7.370772e-02 4.443611e-15 7.678723e-03
6.880408e-02 -5.563704e-15 6.137360e-03
5.661958e-02 -3.061138e-15 6.100919e-03
5.197103e-02 -2.353087e-15 4.976997e-03
4.190059e-02 1.887858e-14 4.981199e-03
3.729706e-02 -1.107753e-14 4.158966e-03
2.884639e-02 1.087238e-14 4.212728e-03
2.410497e-02 -1.199282e-14 3.613014e-03
1.689646e-02 1.112059e-14 3.730522e-03
1.183813e-02 -1.774610e-14 3.296650e-03
5.571217e-03 3.110239e-14 3.496838e-03
0.000000e+00 -3.252711e-14 3.192770e-03
0.000000e+00 -8.696334e-16 -3.042392e-02
2.769306e-02 1.749641e-16 -3.063532e-02
5.603278e-02 3.180908e-16 -3.150899e-02
8.565111e-02 1.039654e-15 -3.340647e-02
1.174280e-01 -6.481419e-16 -3.622898e-02
1.524192e-01 7.619650e-16 -4.089241e-02
1.921836e-01 -5.617725e-16 -4.801426e-02
2.388190e-01 3.446670e-16 -6.055169e-02
2.953086e-01 2.306639e-16 -7.981621e-02
3.632334e-01 -3.029832e-16 -9.744607e-02
4.401210e-01 5.160026e-16 -1.108004e-01
5.247417e-01 1.284554e-15 -1.178115e-01
6.146093e-01 1.446992e-15 -1.296825e-01
7.042406e-01 -4.726599e-15 -9.307915e-02
6.862030e-01 2.938442e-15 1.603603e-01
5.012610e-01 6.337989e-15 2.073900e-01
4.409242e-01 -1.251621e-14 1.019923e-01
3.440965e-01 1.222558e-14 7.500967e-02
3.141635e-01 -3.342103e-15 4.803214e-02
2.526851e-01 -6.704051e-15 3.963495e-02
2.356926e-01 1.407739e-14 2.793535e-02
1.932181e-01 -1.673599e-14 2.541328e-02
1.821899e-01 1.908942e-14 1.864858e-02
1.510135e-01 -2.070509e-14 1.778703e-02
1.429917e-01 2.174811e-14 1.339531e-02
1.191764e-01 -7.549202e-15 1.306027e-02
1.128003e-01 5.311255e-15 1.004587e-02
9.410873e-02 5.693448e-15 9.893366e-03
8.867495e-02 -5.926152e-15 7.757941e-03
7.370772e-02 -1.426007e-15 7.678723e-03
6.880408e-02 1.544699e-15 6.137360e-03
5.661958e-02 -8.003135e-15 6.100919e-03
5.197103e-02 -2.036188e-15 4.976997e-03
4.190059e-02 1.480292e-14 4.981199e-03
3.729706e-02 -2.673934e-15 4.158966e-03
2.884639e-02 -3.399752e-15 4.212728e-03
2.410497e-02 -3.364545e-15 3.613014e-03
1.689646e-02 -5.176264e-15 3.730522e-03
1.183813e-02 3.314074e-16 3.296650e-03
5.571217e-03 1.893833e-14 3.496838e-03
0.000000e+00 -2.165269e-14 3.192770e-03
0.000000e+00 1.141985e-15 -3.042392e-02
2.769306e-02 1.352553e-15 -3.063532e-02
5.603278e-02 -2.314729e-16 -3.150899e-02
8.565111e-02 1.277626e-15 -3.340647e-02
1.174280e-01 -8.873185e-16 -3.622898e-02
1.524192e-01 1.144944e-15 -4.089241e-02
1.921836e-01 -1.006549e-15 -4.801426e-02
2.388190e-01 1.557380e-16 -6.055169e-02
2.953086e-01 1.597836e-15 -7.981621e-02
3.632334e-01 -8.118195e-16 -9.744607e-02
4.401210e-01 8.767553e-16 -1.108004e-01
5.247417e-01 2.556897e-16 -1.178115e-01
6.146093e-01 1.497162e-15 -1.296825e-01
7.042406e-01 2.206705e-16 -9.307915e-02
6.862030e-01 6.226349e-15 1.603603e-01
5.012610e-01 4.299411e-15 2.073900e-01
4.409242e-01 -1.677832e-14 1.019923e-01
3.440965e-01 1.646182e-14 7.500967e-02
3.141635e-01 -3.935819e-15 4.803214e-02
2.526851e-01 -1.000439e-15 3.963495e-02
2.356926e-01 1.137982e-14 2.793535e-02
1.932181e-01 -6.588830e-15 2.541328e-02
1.821899e-01 1.673405e-14 1.864858e-02
1.510135e-01 -2.196612e-14 1.778703e-02
1.429917e-01 1.835847e-14 1.339531e-02
1.191764e-01 -7.762458e-15 1.306027e-02
1.128003e-01 7.978952e-16 1.004587e-02
9.410873e-02 5.047995e-15 9.893366e-03
8.867495e-02 -6.193405e-15 7.757941e-03
7.370772e-02 3.101170e-15 7.678723e-03
6.880408e-02 -4.306340e-15 6.137360e-03
5.661958e-02 -4.146628e-15 6.100919e-03
5.197103e-02 -3.123843e-16 4.976997e-03
4.190059e-02 2.298893e-14 4.981199e-03
3.729706e-02 -1.282567e-14 4.158966e-03
2.884639e-02 1.061159e-14 4.212728e-03
2.410497e-02 -1.353759e-14 3.613014e-03
1.689646e-02 9.268248e-15 3.730522e-03
1.183813e-02 -1.950270e-14 3.296650e-03
5.571217e-03 3.331159e-14 3.496838e-03
0.000000e+00 -3.657035e-14 3.192770e-03
0.000000e+00 6.872184e-16 -3.042392e-02
2.769306e-02 -2.338748e-15 -3.063532e-02
5.603278e-02 1.452730e-15 -3.150899e-02
8.565111e-02 2.375838e-16 -3.340647e-02
1.174280e-01 -9.367889e-17 -3.622898e-02
1.524192e-01 -3.081355e-16 -4.089241e-02
1.921836e-01 5.079818e-16 -4.801426e-02
2.388190e-01 -7.112268e-16 -6.055169e-02
2.953086e-01 -6.690408e-17 -7.981621e-02
3.632334e-01 8.757661e-16 -9.744607e-02
4.401210e-01 3.450776e-16 -1.108004e-01
5.247417e-01 -8.142284e-16 -1.178115e-01
6.146093e-01 1.128460e-15 -1.296825e-01
7.042406e-01 -5.735144e-16 -9.307915e-02
6.862030e-01 5.179775e-15 1.603603e-01
5.012610e-01 1.510722e-15 2.073900e-01
4.409242e-01 -1.632292e-14 1.019923e-01
3.440965e-01 1.504900e-14 7.500967e-02
3.141635e-01 -6.460134e-15 4.803214e-02
2.526851e-01 -1.150192e-15 3.963495e-02
2.356926e-01 1.092851e-14 2.793535e-02
1.932181e-01 -1.170549e-14 2.541328e-02
1.821899e-01 1.170466e-14 1.864858e-02
1.510135e-01 -1.794640e-14 1.778703e-02
1.429917e-01 2.049020e-14 1.339531e-02
1.191764e-01 -6.629703e-15 1.306027e-02
1.128003e-01 5.165270e-15 1.004587e-02
9.410873e-02 6.788359e-15 9.893366e-03
8.867495e-02 -5.164380e-15 7.757941e-03
7.370772e-02 -9.620613e-16 7.678723e-03
6.880408e-02 -1.534280e-15 6.137360e-03
5.661958e-02 -7.612441e-15 6.100919e-03
5.197103e-02 2.589130e-15 4.976997e-03
4.190059e-02 1.026358e-14 4.981199e-03
3.729706e-02 -2.090178e-15 4.158966e-03
2.884639e-02 -2.744667e-15 4.212728e-03
2.410497e-02 -4.329321e-15 3.613014e-03
1.689646e-02 -4.132475e-15 3.730522e-03
1.183813e-02 6.313806e-16 3.296650e-03
5.571217e-03 2.244331e-14 3.496838e-03
0.000000e+00 -2.319789e-14 3.192770e-03
0.000000e+00 5.233793e-16 -3.042392e-02
2.769306e-02 3.354515e-16 -3.063532e-02
5.603278e-02 -5.369998e-16 -3.150899e-02
8.565111e-02 -2.108192e-17 -3.340647e-02
1.174280e-01 -6.463637e-16 -3.622898e-02
1.524192e-01 -8.364827e-17 -4.089241e-02
1.921836e-01 -2.577747e-16 -4.801426e-02
2.388190e-01 1.143230e-17 -6.055169e-02
2.953086e-01 7.604960e-16 -7.981621e-02
3.632334e-01 -1.681321e-15 -9.744607e-02
4.401210e-01 -8.221784e-17 -1.108004e-01
5.247417e-01 9.778110e-16 -1.178115e-01