# vtk DataFile Version 3.0
vtk output
ASCII
DATASET UNSTRUCTURED_GRID
POINTS 11767 float
0.000000e+00 0.000000e+00 0.000000e+00
1.460000e-02 0.000000e+00 0.000000e+00
2.920000e-02 0.000000e+00 0.000000e+00
4.380000e-02 0.000000e+00 0.000000e+00
5.840000e-02 0.000000e+00 0.000000e+00
7.300000e-02 0.000000e+00 0.000000e+00
8.760000e-02 0.000000e+00 0.000000e+00
1.022000e-01 0.000000e+00 0.000000e+00
1.168000e-01 0.000000e+00 0.000000e+00
1.314000e-01 0.000000e+00 0.000000e+00
1.460000e-01 0.000000e+00 0.000000e+00
1.606000e-01 0.000000e+00 0.000000e+00
1.752000e-01 0.000000e+00 0.000000e+00
1.898000e-01 0.000000e+00 0.000000e+00
2.044000e-01 0.000000e+00 0.000000e+00
2.190000e-01 0.000000e+00 0.000000e+00
2.336000e-01 0.000000e+00 0.000000e+00
2.482000e-01 0.000000e+00 0.000000e+00
2.628000e-01 0.000000e+00 0.000000e+00
2.774000e-01 0.000000e+00 0.000000e+00
2.920000e-01 0.000000e+00 0.000000e+00
3.066000e-01 0.000000e+00 0.000000e+00
3.212000e-01 0.000000e+00 0.000000e+00
3.358000e-01 0.000000e+00 0.000000e+00
3.504000e-01 0.000000e+00 0.000000e+00
3.650000e-01 0.000000e+00 0.000000e+00
3.796000e-01 0.000000e+00 0.000000e+00
3.942000e-01 0.000000e+00 0.000000e+00
4.088000e-01 0.000000e+00 0.000000e+00
4.234000e-01 0.000000e+00 0.000000e+00
4.380000e-01 0.000000e+00 0.000000e+00
4.526000e-01 0.000000e+00 0.000000e+00
4.672000e-01 0.000000e+00 0.000000e+00
4.818000e-01 0.000000e+00 0.000000e+00
4.964000e-01 0.000000e+00 0.000000e+00
5.110000e-01 0.000000e+00 0.000000e+00
5.256000e-01 0.000000e+00 0.000000e+00
5.402000e-01 0.000000e+00 0.000000e+00
5.548000e-01 0.000000e+00 0.000000e+00
5.694000e-01 0.000000e+00 0.000000e+00
5.840000e-01 0.000000e+00 0.000000e+00
0.000000e+00 1.460000e-02 0.000000e+00
1.460000e-02 1.460000e-02 0.000000e+00
2.920000e-02 1.460000e-02 0.000000e+00
4.380000e-02 1.460000e-02 0.000000e+00
5.840000e-02 1.460000e-02 0.000000e+00
7.300000e-02 1.460000e-02 0.000000e+00
8.760000e-02 1.460000e-02 0.000000e+00
1.022000e-01 1.460000e-02 0.000000e+00
1.168000e-01 1.460000e-02 0.000000e+00
1.314000e-01 1.460000e-02 0.000000e+00
1.460000e-01 1.460000e-02 0.000000e+00
1.606000e-01 1.460000e-02 0.000000e+00
1.752000e-01 1.460000e-02 0.000000e+00
1.898000e-01 1.460000e-02 0.000000e+00
2.044000e-01 1.460000e-02 0.000000e+00
2.190000e-01 1.460000e-02 0.000000e+00
2.336000e-01 1.460000e-02 0.000000e+00
2.482000e-01 1.460000e-02 0.000000e+00
2.628000e-01 1.460000e-02 0.000000e+00
2.774000e-01 1.460000e-02 0.000000e+00
2.920000e-01 1.460000e-02 0.000000e+00
3.066000e-01 1.460000e-02 0.000000e+00
3.212000e-01 1.460000e-02 0.000000e+00
3.358000e-01 1.460000e-02 0.000000e+00
3.504000e-01 1.460000e-02 0.000000e+00
3.650000e-01 1.460000e-02 0.000000e+00
3.796000e-01 1.460000e-02 0.000000e+00
3.942000e-01 1.460000e-02 0.000000e+00
4.088000e-01 1.460000e-02 0.000000e+00
4.234000e-01 1.460000e-02 0.000000e+00
4.380000e-01 1.460000e-02 0.000000e+00
4.526000e-01 1.460000e-02 0.000000e+00
4.672000e-01 1.460000e-02 0.000000e+00
4.818000e-01 1.460000e-02 0.000000e+00
4.964000e-01 1.460000e-02 0.000000e+00
5.110000e-01 1.460000e-02 0.000000e+00
5.256000e-01 1.460000e-02 0.000000e+00
5.402000e-01 1.460000e-02 0.000000e+00
5.548000e-01 1.460000e-02 0.000000e+00
5.694000e-01 1.460000e-02 0.000000e+00
5.840000e-01 1.460000e-02 0.000000e+00
0.000000e+00 2.920000e-02 0.000000e+00
1.460000e-02 2.920000e-02 0.000000e+00
2.920000e-02 2.920000e-02 0.000000e+00
4.380000e-02 2.920000e-02 0.000000e+00
5.840000e-02 2.920000e-02 0.000000e+00
7.300000e-02 2.920000e-02 0.000000e+00
8.760000e-02 2.920000e-02 0.000000e+00
1.022000e-01 2.920000e-02 0.000000e+00
1.168000e-01 2.920000e-02 0.000000e+00
1.314000e-01 2.920000e-02 0.000000e+00
1.460000e-01 2.920000e-02 0.000000e+00
1.606000e-01 2.920000e-02 0.000000e+00
1.752000e-01 2.920000e-02 0.000000e+00
1.898000e-01 2.920000e-02 0.000000e+00
2.044000e-01 2.920000e-02 0.000000e+00
2.190000e-01 2.920000e-02 0.000000e+00
2.336000e-01 2.920000e-02 0.000000e+00
2.482000e-01 2.920000e-02 0.000000e+00
2.628000e-01 2.920000e-02 0.000000e+00
2.774000e-01 2.920000e-02 0.000000e+00
2.920000e-01 2.920000e-02 0.000000e+00
3.066000e-01 2.920000e-02 0.000000e+00
3.212000e-01 2.920000e-02 0.000000e+00
3.358000e-01 2.920000e-02 0.000000e+00
3.504000e-01 2.920000e-02 0.000000e+00
3.650000e-01 2.920000e-02 0.000000e+00
3.796000e-01 2.920000e-02 0.000000e+00
3.942000e-01 2.920000e-02 0.000000e+00
4.088000e-01 2.920000e-02 0.000000e+00
4.234000e-01 2.920000e-02 0.000000e+00
4.380000e-01 2.920000e-02 0.000000e+00
4.526000e-01 2.920000e-02 0.000000e+00
4.672000e-01 2.920000e-02 0.000000e+00
4.818000e-01 2.920000e-02 0.000000e+00
4.964000e-01 2.920000e-02 0.000000e+00
5.110000e-01 2.920000e-02 0.000000e+00
5.256000e-01 2.920000e-02 0.000000e+00
5.402000e-01 2.920000e-02 0.000000e+00
5.548000e-01 2.920000e-02 0.000000e+00
5.694000e-01 2.920000e-02 0.000000e+00
5.840000e-01 2.920000e-02 0.000000e+00
0.000000e+00 4.380000e-02 0.000000e+00
1.460000e-02 4.380000e-02 0.000000e+00
2.920000e-02 4.380000e-02 0.000000e+00
4.380000e-02 4.380000e-02 0.000000e+00
5.840000e-02 4.380000e-02 0.000000e+00
7.300000e-02 4.380000e-02 0.000000e+00
8.760000e-02 4.380000e-02 0.000000e+00
1.022000e-01 4.380000e-02 0.000000e+00
1.168000e-01 4.380000e-02 0.000000e+00
1.314000e-01 4.380000e-02 0.000000e+00
1.460000e-01 4.380000e-02 0.000000e+00
1.606000e-01 4.380000e-02 0.000000e+00
1.752000e-01 4.380000e-02 0.000000e+00
1.898000e-01 4.380000e-02 0.000000e+00
2.044000e-01 4.380000e-02 0.000000e+00
2.190000e-01 4.380000e-02 0.000000e+00
2.336000e-01 4.380000e-02 0.000000e+00
2.482000e-01 4.380000e-02 0.000000e+00
2.628000e-01 4.380000e-02 0.000000e+00
2.774000e-01 4.380000e-02 0.000000e+00
2.920000e-01 4.380000e-02 0.000000e+00
3.066000e-01 4.380000e-02 0.000000e+00
3.212000e-01 4.380000e-02 0.000000e+00
3.358000e-01 4.380000e-02 0.000000e+00
3.504000e-01 4.380000e-02 0.000000e+00
3.650000e-01 4.380000e-02 0.000000e+00
3.796000e-01 4.380000e-02 0.000000e+00
3.942000e-01 4.380000e-02 0.000000e+00
4.088000e-01 4.380000e-02 0.000000e+00
4.234000e-01 4.380000e-02 0.000000e+00
4.380000e-01 4.380000e-02 0.000000e+00
4.526000e-01 4.380000e-02 0.000000e+00
4.672000e-01 4.380000e-02 0.000000e+00
4.818000e-01 4.380000e-02 0.000000e+00
4.964000e-01 4.380000e-02 0.000000e+00
5.110000e-01 4.380000e-02 0.000000e+00
5.256000e-01 4.380000e-02 0.000000e+00
5.402000e-01 4.380000e-02 0.000000e+00
5.548000e-01 4.380000e-02 0.000000e+00
5.694000e-01 4.380000e-02 0.000000e+00
5.840000e-01 4.380000e-02 0.000000e+00
0.000000e+00 5.840000e-02 0.000000e+00
1.460000e-02 5.840000e-02 0.000000e+00
2.920000e-02 5.840000e-02 0.000000e+00
4.380000e-02 5.840000e-02 0.000000e+00
5.840000e-02 5.840000e-02 0.000000e+00
7.300000e-02 5.840000e-02 0.000000e+00
8.760000e-02 5.840000e-02 0.000000e+00
1.022000e-01 5.840000e-02 0.000000e+00
1.168000e-01 5.840000e-02 0.000000e+00
1.314000e-01 5.840000e-02 0.000000e+00
1.460000e-01 5.840000e-02 0.000000e+00
1.606000e-01 5.840000e-02 0.000000e+00
1.752000e-01 5.840000e-02 0.000000e+00
1.898000e-01 5.840000e-02 0.000000e+00
2.044000e-01 5.840000e-02 0.000000e+00
2.190000e-01 5.840000e-02 0.000000e+00
2.336000e-01 5.840000e-02 0.000000e+00
2.482000e-01 5.840000e-02 0.000000e+00
2.628000e-01 5.840000e-02 0.000000e+00
2.774000e-01 5.840000e-02 0.000000e+00
2.920000e-01 5.840000e-02 0.000000e+00
3.066000e-01 5.840000e-02 0.000000e+00
3.212000e-01 5.840000e-02 0.000000e+00
3.358000e-01 5.840000e-02 0.000000e+00
3.504000e-01 5.840000e-02 0.000000e+00
3.650000e-01 5.840000e-02 0.000000e+00
3.796000e-01 5.840000e-02 0.000000e+00
3.942000e-01 5.840000e-02 0.000000e+00
4.088000e-01 5.840000e-02 0.000000e+00
4.234000e-01 5.840000e-02 0.000000e+00
4.380000e-01 5.840000e-02 0.000000e+00
4.526000e-01 5.840000e-02 0.000000e+00
4.672000e-01 5.840000e-02 0.000000e+00
4.818000e-01 5.840000e-02 0.000000e+00
4.964000e-01 5.840000e-02 0.000000e+00
5.110000e-01 5.840000e-02 0.000000e+00
5.256000e-01 5.840000e-02 0.000000e+00
5.402000e-01 5.840000e-02 0.000000e+00
5.548000e-01 5.840000e-02 0.000000e+00
5.694000e-01 5.840000e-02 0.000000e+00
5.840000e-01 5.840000e-02 0.000000e+00
0.000000e+00 7.300000e-02 0.000000e+00
1.460000e-02 7.300000e-02 0.000000e+00
2.920000e-02 7.300000e-02 0.000000e+00
4.380000e-02 7.300000e-02 0.000000e+00
5.840000e-02 7.300000e-02 0.000000e+00
7.300000e-02 7.300000e-02 0.000000e+00
8.760000e-02 7.300000e-02 0.000000e+00
1.022000e-01 7.300000e-02 0.000000e+00
1.168000e-01 7.300000e-02 0.000000e+00
1.314000e-01 7.300000e-02 0.000000e+00
1.460000e-01 7.300000e-02 0.000000e+00
1.606000e-01 7.300000e-02 0.000000e+00
1.752000e-01 7.300000e-02 0.000000e+00
1.898000e-01 7.300000e-02 0.000000e+00
2.044000e-01 7.300000e-02 0.000000e+00
2.190000e-01 7.300000e-02 0.000000e+00
2.336000e-01 7.300000e-02 0.000000e+00
2.482000e-01 7.300000e-02 0.000000e+00
2.628000e-01 7.300000e-02 0.000000e+00
2.774000e-01 7.300000e-02 0.000000e+00
2.920000e-01 7.300000e-02 0.000000e+00
3.066000e-01 7.300000e-02 0.000000e+00
3.212000e-01 7.300000e-02 0.000000e+00
3.358000e-01 7.300000e-02 0.000000e+00
3.504000e-01 7.300000e-02 0.000000e+00
3.650000e-01 7.300000e-02 0.000000e+00
3.796000e-01 7.300000e-02 0.000000e+00
3.942000e-01 7.300000e-02 0.000000e+00
4.088000e-01 7.300000e-02 0.000000e+00
4.234000e-01 7.300000e-02 0.000000e+00
4.380000e-01 7.300000e-02 0.000000e+00
4.526000e-01 7.300000e-02 0.000000e+00
4.672000e-01 7.300000e-02 0.000000e+00
4.818000e-01 7.300000e-02 0.000000e+00
4.964000e-01 7.300000e-02 0.000000e+00
5.110000e-01 7.300000e-02 0.000000e+00
5.256000e-01 7.300000e-02 0.000000e+00
5.402000e-01 7.300000e-02 0.000000e+00
5.548000e-01 7.300000e-02 0.000000e+00
5.694000e-01 7.300000e-02 0.000000e+00
5.840000e-01 7.300000e-02 0.000000e+00
0.000000e+00 8.760000e-02 0.000000e+00
1.460000e-02 8.760000e-02 0.000000e+00
2.920000e-02 8.760000e-02 0.000000e+00
4.380000e-02 8.760000e-02 0.000000e+00
5.840000e-02 8.760000e-02 0.000000e+00
7.300000e-02 8.760000e-02 0.000000e+00
8.760000e-02 8.760000e-02 0.000000e+00
1.022000e-01 8.760000e-02 0.000000e+00
[...]
POINT_DATA 11767
VECTORS Velocity float
0.000000e+00 0.000000e+00 0.000000e+00
1.446816e-02 0.000000e+00 0.000000e+00
2.385117e-02 0.000000e+00 0.000000e+00
3.084691e-02 0.000000e+00 0.000000e+00
3.585567e-02 0.000000e+00 0.000000e+00
3.960630e-02 0.000000e+00 0.000000e+00
4.224336e-02 0.000000e+00 0.000000e+00
4.382165e-02 0.000000e+00 0.000000e+00
4.425905e-02 0.000000e+00 0.000000e+00
4.362803e-02 0.000000e+00 0.000000e+00
4.223073e-02 0.000000e+00 0.000000e+00
4.060760e-02 0.000000e+00 0.000000e+00
3.937310e-02 0.000000e+00 0.000000e+00
3.923969e-02 0.000000e+00 0.000000e+00
4.049900e-02 0.000000e+00 0.000000e+00
4.305213e-02 0.000000e+00 0.000000e+00
4.668805e-02 0.000000e+00 0.000000e+00
5.113143e-02 0.000000e+00 0.000000e+00
5.613478e-02 0.000000e+00 0.000000e+00
6.142026e-02 0.000000e+00 0.000000e+00
6.672259e-02 0.000000e+00 0.000000e+00
7.177457e-02 0.000000e+00 0.000000e+00
7.631645e-02 0.000000e+00 0.000000e+00
8.016654e-02 0.000000e+00 0.000000e+00
8.317973e-02 0.000000e+00 0.000000e+00
8.535985e-02 0.000000e+00 0.000000e+00
8.674690e-02 0.000000e+00 0.000000e+00
8.755079e-02 0.000000e+00 0.000000e+00
8.791230e-02 0.000000e+00 0.000000e+00
8.806921e-02 0.000000e+00 0.000000e+00
8.809017e-02 0.000000e+00 0.000000e+00
8.804354e-02 0.000000e+00 0.000000e+00
8.787287e-02 0.000000e+00 0.000000e+00
8.730793e-02 0.000000e+00 0.000000e+00
8.619450e-02 0.000000e+00 0.000000e+00
8.406944e-02 0.000000e+00 0.000000e+00
8.001111e-02 0.000000e+00 0.000000e+00
7.459482e-02 0.000000e+00 0.000000e+00
6.206003e-02 0.000000e+00 0.000000e+00
4.695701e-02 0.000000e+00 0.000000e+00
0.000000e+00 0.000000e+00 0.000000e+00
0.000000e+00 -3.282648e-13 0.000000e+00
1.446816e-02 -3.307173e-13 0.000000e+00
2.385117e-02 -4.732411e-13 0.000000e+00
3.084691e-02 -6.870810e-13 0.000000e+00
3.585567e-02 -9.289700e-13 0.000000e+00
3.960630e-02 -1.140282e-12 0.000000e+00
4.224336e-02 -9.723099e-13 0.000000e+00
4.382165e-02 -7.498781e-13 0.000000e+00
4.425905e-02 -3.222653e-13 0.000000e+00
4.362803e-02 -1.342990e-13 0.000000e+00
4.223073e-02 9.459057e-14 0.000000e+00
4.060760e-02 1.488997e-13 0.000000e+00
3.937310e-02 3.368931e-13 0.000000e+00
3.923969e-02 1.390330e-13 0.000000e+00
4.049900e-02 -8.518108e-15 0.000000e+00
4.305213e-02 -9.980151e-14 0.000000e+00
4.668805e-02 -1.523921e-13 0.000000e+00
5.113143e-02 -9.981470e-14 0.000000e+00
5.613478e-02 -8.173239e-14 0.000000e+00
6.142026e-02 -4.925827e-14 0.000000e+00
6.672259e-02 -3.806705e-14 0.000000e+00
7.177457e-02 -4.557537e-14 0.000000e+00
7.631645e-02 -8.614256e-14 0.000000e+00
8.016654e-02 -1.152313e-13 0.000000e+00
8.317973e-02 -1.657632e-13 0.000000e+00
8.535985e-02 -1.061232e-13 0.000000e+00
8.674690e-02 -1.351279e-13 0.000000e+00
8.755079e-02 -2.821184e-14 0.000000e+00
8.791230e-02 1.853968e-14 0.000000e+00
8.806921e-02 1.081137e-13 0.000000e+00
8.809017e-02 1.075382e-13 0.000000e+00
8.804354e-02 1.346428e-13 0.000000e+00
8.787287e-02 5.307683e-14 0.000000e+00
8.730793e-02 8.423216e-14 0.000000e+00
8.619450e-02 2.040528e-15 0.000000e+00
8.406944e-02 1.037296e-13 0.000000e+00
8.001111e-02 6.062107e-14 0.000000e+00
7.459482e-02 2.067232e-13 0.000000e+00
6.206003e-02 1.162431e-13 0.000000e+00
4.695701e-02 2.950983e-13 0.000000e+00
0.000000e+00 4.528234e-13 0.000000e+00
0.000000e+00 -5.207159e-13 0.000000e+00
1.446816e-02 -4.795294e-13 0.000000e+00
2.385117e-02 -6.749348e-13 0.000000e+00
3.084691e-02 -1.001916e-12 0.000000e+00
3.585567e-02 -1.311359e-12 0.000000e+00
3.960630e-02 -1.634248e-12 0.000000e+00
4.224336e-02 -1.392159e-12 0.000000e+00
4.382165e-02 -1.108994e-12 0.000000e+00
4.425905e-02 -5.219493e-13 0.000000e+00
4.362803e-02 -2.712772e-13 0.000000e+00
4.223073e-02 9.940950e-14 0.000000e+00
4.060760e-02 1.491645e-13 0.000000e+00
3.937310e-02 3.940522e-13 0.000000e+00
3.923969e-02 1.395974e-13 0.000000e+00
4.049900e-02 -4.402034e-14 0.000000e+00
4.305213e-02 -1.779846e-13 0.000000e+00
4.668805e-02 -2.330853e-13 0.000000e+00
5.113143e-02 -1.845492e-13 0.000000e+00
5.613478e-02 -1.541339e-13 0.000000e+00
6.142026e-02 -1.051618e-13 0.000000e+00
6.672259e-02 -6.217978e-14 0.000000e+00
7.177457e-02 -7.273062e-14 0.000000e+00
7.631645e-02 -8.097201e-14 0.000000e+00
8.016654e-02 -1.011813e-13 0.000000e+00
8.317973e-02 -1.550147e-13 0.000000e+00
8.535985e-02 -9.368901e-14 0.000000e+00
8.674690e-02 -1.502977e-13 0.000000e+00
8.755079e-02 -3.194357e-14 0.000000e+00
8.791230e-02 -5.783539e-15 0.000000e+00
8.806921e-02 1.452742e-13 0.000000e+00
8.809017e-02 1.625625e-13 0.000000e+00
8.804354e-02 2.246507e-13 0.000000e+00
8.787287e-02 1.231543e-13 0.000000e+00
8.730793e-02 1.040893e-13 0.000000e+00
8.619450e-02 4.508859e-14 0.000000e+00
8.406944e-02 1.192956e-13 0.000000e+00
8.001111e-02 1.218590e-13 0.000000e+00
7.459482e-02 2.383692e-13 0.000000e+00
6.206003e-02 2.130931e-13 0.000000e+00
4.695701e-02 3.706951e-13 0.000000e+00
0.000000e+00 6.647767e-13 0.000000e+00
0.000000e+00 -3.863362e-13 0.000000e+00
1.446816e-02 -4.077947e-13 0.000000e+00
2.385117e-02 -5.352978e-13 0.000000e+00
3.084691e-02 -7.729832e-13 0.000000e+00
3.585567e-02 -9.344614e-13 0.000000e+00
3.960630e-02 -1.188505e-12 0.000000e+00
4.224336e-02 -1.067619e-12 0.000000e+00
4.382165e-02 -9.167048e-13 0.000000e+00
4.425905e-02 -5.446524e-13 0.000000e+00
4.362803e-02 -3.772152e-13 0.000000e+00
4.223073e-02 -3.080464e-14 0.000000e+00
4.060760e-02 -2.926821e-14 0.000000e+00
3.937310e-02 1.441091e-13 0.000000e+00
3.923969e-02 -2.453370e-14 0.000000e+00
4.049900e-02 -8.935786e-14 0.000000e+00
4.305213e-02 -1.783436e-13 0.000000e+00
4.668805e-02 -2.123917e-13 0.000000e+00
5.113143e-02 -1.792754e-13 0.000000e+00
5.613478e-02 -1.670735e-13 0.000000e+00
6.142026e-02 -1.202832e-13 0.000000e+00
6.672259e-02 -7.357173e-14 0.000000e+00
7.177457e-02 -5.769250e-14 0.000000e+00
7.631645e-02 -3.873443e-14 0.000000e+00
8.016654e-02 -3.367793e-14 0.000000e+00
8.317973e-02 -7.984713e-14 0.000000e+00
8.535985e-02 -1.793255e-14 0.000000e+00
8.674690e-02 -1.170980e-13 0.000000e+00
8.755079e-02 -1.839647e-14 0.000000e+00
8.791230e-02 -1.854997e-14 0.000000e+00
8.806921e-02 1.372205e-13 0.000000e+00
8.809017e-02 1.769230e-13 0.000000e+00
8.804354e-02 2.577630e-13 0.000000e+00
8.787287e-02 1.476483e-13 0.000000e+00
8.730793e-02 1.254147e-13 0.000000e+00
8.619450e-02 4.932565e-14 0.000000e+00
8.406944e-02 1.368264e-13 0.000000e+00
8.001111e-02 9.291719e-14 0.000000e+00
7.459482e-02 2.403074e-13 0.000000e+00
6.206003e-02 1.541242e-13 0.000000e+00
4.695701e-02 3.815935e-13 0.000000e+00
0.000000e+00 6.398331e-13 0.000000e+00
0.000000e+00 -2.413285e-13 0.000000e+00
1.446816e-02 -2.662107e-13 0.000000e+00
2.385117e-02 -2.902735e-13 0.000000e+00
3.084691e-02 -3.652864e-13 0.000000e+00
3.585567e-02 -3.347903e-13 0.000000e+00
3.960630e-02 -4.633117e-13 0.000000e+00
4.224336e-02 -4.871142e-13 0.000000e+00
4.382165e-02 -5.120202e-13 0.000000e+00
4.425905e-02 -4.305414e-13 0.000000e+00
4.362803e-02 -3.909410e-13 0.000000e+00
4.223073e-02 -1.571515e-13 0.000000e+00
4.060760e-02 -2.048531e-13 0.000000e+00
3.937310e-02 -1.251057e-13 0.000000e+00
3.923969e-02 -1.708926e-13 0.000000e+00
4.049900e-02 -9.802528e-14 0.000000e+00
4.305213e-02 -1.344886e-13 0.000000e+00
4.668805e-02 -1.064218e-13 0.000000e+00
5.113143e-02 -1.093625e-13 0.000000e+00
5.613478e-02 -9.435242e-14 0.000000e+00
6.142026e-02 -7.382083e-14 0.000000e+00
6.672259e-02 -3.519308e-14 0.000000e+00
7.177457e-02 -4.391378e-14 0.000000e+00
7.631645e-02 -2.939563e-14 0.000000e+00
8.016654e-02 -3.886293e-14 0.000000e+00
8.317973e-02 -8.626531e-14 0.000000e+00
8.535985e-02 -2.947584e-14 0.000000e+00
8.674690e-02 -1.090055e-13 0.000000e+00
8.755079e-02 -9.089145e-15 0.000000e+00
8.791230e-02 -4.881688e-15 0.000000e+00
8.806921e-02 1.288466e-13 0.000000e+00
8.809017e-02 1.496506e-13 0.000000e+00
8.804354e-02 2.306866e-13 0.000000e+00
8.787287e-02 1.307320e-13 0.000000e+00
8.730793e-02 1.204437e-13 0.000000e+00
8.619450e-02 5.130620e-14 0.000000e+00
8.406944e-02 1.117608e-13 0.000000e+00
8.001111e-02 8.929738e-14 0.000000e+00
7.459482e-02 1.911063e-13 0.000000e+00
6.206003e-02 1.538055e-13 0.000000e+00
4.695701e-02 2.886538e-13 0.000000e+00
0.000000e+00 5.411674e-13 0.000000e+00
0.000000e+00 -1.676864e-13 0.000000e+00
1.446816e-02 -1.441430e-13 0.000000e+00
2.385117e-02 -1.248792e-13 0.000000e+00
3.084691e-02 -1.264498e-13 0.000000e+00
3.585567e-02 -7.563049e-14 0.000000e+00
3.960630e-02 -1.065173e-13 0.000000e+00
4.224336e-02 -1.656070e-13 0.000000e+00
4.382165e-02 -1.947880e-13 0.000000e+00
4.425905e-02 -2.396362e-13 0.000000e+00
4.362803e-02 -2.484145e-13 0.000000e+00
4.223073e-02 -1.484011e-13 0.000000e+00
4.060760e-02 -1.819557e-13 0.000000e+00
3.937310e-02 -1.598603e-13 0.000000e+00
3.923969e-02 -1.520555e-13 0.000000e+00
4.049900e-02 -7.780398e-14 0.000000e+00
4.305213e-02 -6.397875e-14 0.000000e+00
4.668805e-02 -4.356353e-14 0.000000e+00
5.113143e-02 -3.054913e-14 0.000000e+00
5.613478e-02 -2.772997e-14 0.000000e+00
6.142026e-02 -2.305691e-14 0.000000e+00
6.672259e-02 -1.445524e-14 0.000000e+00
7.177457e-02 -2.783009e-14 0.000000e+00
7.631645e-02 -5.145762e-14 0.000000e+00
8.016654e-02 -6.573840e-14 0.000000e+00
8.317973e-02 -1.065948e-13 0.000000e+00
8.535985e-02 -5.236752e-14 0.000000e+00
8.674690e-02 -1.011269e-13 0.000000e+00
8.755079e-02 -9.222904e-15 0.000000e+00
8.791230e-02 1.203553e-14 0.000000e+00
8.806921e-02 9.521148e-14 0.000000e+00
8.809017e-02 9.684514e-14 0.000000e+00
8.804354e-02 1.414964e-13 0.000000e+00
8.787287e-02 6.518576e-14 0.000000e+00
8.730793e-02 1.002192e-13 0.000000e+00
8.619450e-02 6.600936e-15 0.000000e+00
8.406944e-02 9.388478e-14 0.000000e+00
8.001111e-02 2.848450e-14 0.000000e+00
7.459482e-02 1.564032e-13 0.000000e+00
6.206003e-02 5.711666e-14 0.000000e+00
4.695701e-02 2.279857e-13 0.000000e+00
0.000000e+00 3.531160e-13 0.000000e+00
0.000000e+00 0.000000e+00 0.000000e+00
1.446816e-02 0.000000e+00 0.000000e+00
2.385117e-02 0.000000e+00 0.000000e+00
3.084691e-02 0.000000e+00 0.000000e+00
3.585567e-02 0.000000e+00 0.000000e+00
3.960630e-02 0.000000e+00 0.000000e+00
4.224336e-02 0.000000e+00 0.000000e+00
4.382165e-02 0.000000e+00 0.000000e+00
4.425905e-02 0.000000e+00 0.000000e+00
4.362803e-02 0.000000e+00 0.000000e+00
4.223073e-02 0.000000e+00 0.000000e+00
4.060760e-02 0.000000e+00 0.000000e+00
3.937310e-02 0.000000e+00 0.000000e+00
3.923969e-02 0.000000e+00 0.000000e+00
4.049900e-02 0.000000e+00 0.000000e+00
4.305213e-02 0.000000e+00 0.000000e+00
4.668805e-02 0.000000e+00 0.000000e+00
5.113143e-02 0.000000e+00 0.000000e+00
5.613478e-02 0.000000e+00 0.000000e+00
6.142026e-02 0.000000e+00 0.000000e+00
6.672259e-02 0.000000e+00 0.000000e+00
7.177457e-02 0.000000e+00 0.000000e+00
7.631645e-02 0.000000e+00 0.000000e+00
8.016654e-02 0.000000e+00 0.000000e+00
8.317973e-02 0.000000e+00 0.000000e+00
8.535985e-02 0.000000e+00 0.000000e+00
8.674690e-02 0.000000e+00 0.000000e+00
8.755079e-02 0.000000e+00 0.000000e+00
8.791230e-02 0.000000e+00 0.000000e+00
8.806921e-02 0.000000e+00 0.000000e+00
8.809017e-02 0.000000e+00 0.000000e+00
8.804354e-02 0.000000e+00 0.000000e+00
8.787287e-02 0.000000e+00 0.000000e+00
8.730793e-02 0.000000e+00 0.000000e+00
8.619450e-02 0.000000e+00 0.000000e+00
8.406944e-02 0.000000e+00 0.000000e+00
8.001111e-02 0.000000e+00 0.000000e+00
7.459482e-02 0.000000e+00 0.000000e+00
6.206003e-02 0.000000e+00 0.000000e+00
4.695701e-02 0.000000e+00 0.000000e+00
0.000000e+00 0.000000e+00 0.000000e+00
0.000000e+00 0.000000e+00 -1.329250e-02
1.454324e-03 0.000000e+00 -1.120608e-02
4.257694e-03 0.000000e+00 -8.648177e-03
6.980125e-03 0.000000e+00 -7.302940e-03
9.249055e-03 0.000000e+00 -5.963338e-03
1.069864e-02 0.000000e+00 -4.906948e-03
1.104123e-02 0.000000e+00 -3.789155e-03
1.020699e-02 0.000000e+00 -2.662676e-03
8.273399e-03 0.000000e+00 -1.570764e-03
5.571295e-03 0.000000e+00 -7.372953e-04
2.547096e-03 0.000000e+00 -3.682119e-04
-2.389961e-04 0.000000e+00 -5.885133e-04
-2.270045e-03 0.000000e+00 -1.390146e-03
-3.410878e-03 0.000000e+00 -2.601162e-03
-3.534598e-03 0.000000e+00 -3.882354e-03
-2.634190e-03 0.000000e+00 -5.000300e-03
-9.230986e-04 0.000000e+00 -5.871174e-03
1.384877e-03 0.000000e+00 -6.484048e-03
4.056388e-03 0.000000e+00 -6.871289e-03
6.997486e-03 0.000000e+00 -7.031952e-03
1.004561e-02 0.000000e+00 -6.973402e-03
1.309720e-02 0.000000e+00 -6.682993e-03
1.597260e-02 0.000000e+00 -6.199128e-03
1.856788e-02 0.000000e+00 -5.554435e-03
2.073029e-02 0.000000e+00 -4.837180e-03
2.244153e-02 0.000000e+00 -4.118589e-03
2.366899e-02 0.000000e+00 -3.517585e-03
2.459450e-02 0.000000e+00 -3.096869e-03
2.539485e-02 0.000000e+00 -2.901954e-03
2.641747e-02 0.000000e+00 -2.903790e-03
2.776693e-02 0.000000e+00 -2.965295e-03
2.946593e-02 0.000000e+00 -2.990116e-03
3.115358e-02 0.000000e+00 -2.796611e-03
3.267239e-02 0.000000e+00 -2.335864e-03
3.360175e-02 0.000000e+00 -1.744100e-03
3.374075e-02 0.000000e+00 -8.243051e-05
3.262264e-02 0.000000e+00 5.968788e-04
3.017576e-02 0.000000e+00 5.376043e-03
2.480296e-02 0.000000e+00 6.746076e-03
1.661158e-02 0.000000e+00 2.162683e-02
0.000000e+00 0.000000e+00 4.072242e-02
0.000000e+00 -2.642701e-14 -1.329250e-02
1.454324e-03 4.384877e-15 -1.120608e-02
4.257694e-03 1.044942e-13 -8.648177e-03
6.980125e-03 2.738756e-13 -7.302940e-03
9.249055e-03 3.931866e-13 -5.963338e-03
1.069864e-02 4.620619e-13 -4.906948e-03
1.104123e-02 1.581551e-13 -3.789155e-03
1.020699e-02 -1.018711e-13 -2.662676e-03
8.273399e-03 -4.918266e-13 -1.570764e-03
5.571295e-03 -5.839671e-13 -7.372953e-04
2.547096e-03 -6.328531e-13 -3.682119e-04
-2.389961e-04 -6.027450e-13 -5.885133e-04
-2.270045e-03 -6.518084e-13 -1.390146e-03
-3.410878e-03 -3.956997e-13 -2.601162e-03
-3.534598e-03 -1.788622e-13 -3.882354e-03
-2.634190e-03 -5.806644e-14 -5.000300e-03
-9.230986e-04 -8.056810e-15 -5.871174e-03
1.384877e-03 -3.436878e-14 -6.484048e-03
4.056388e-03 -7.038144e-14 -6.871289e-03
6.997486e-03 -1.261580e-13 -7.031952e-03
1.004561e-02 -8.286719e-14 -6.973402e-03
1.309720e-02 -9.783894e-14 -6.682993e-03
1.597260e-02 -3.088505e-14 -6.199128e-03
1.856788e-02 -3.476112e-14 -5.554435e-03
2.073029e-02 -4.408024e-14 -4.837180e-03
2.244153e-02 -1.653189e-13 -4.118589e-03
2.366899e-02 -2.998788e-13 -3.517585e-03
2.459450e-02 -3.844514e-13 -3.096869e-03
2.539485e-02 -4.996882e-13 -2.901954e-03
2.641747e-02 -4.185858e-13 -2.903790e-03
2.776693e-02 -2.239008e-13 -2.965295e-03
2.946593e-02 7.203424e-14 -2.990116e-03
3.115358e-02 1.885645e-13 -2.796611e-03
3.267239e-02 2.868932e-13 -2.335864e-03
3.360175e-02 1.035694e-13 -1.744100e-03
3.374075e-02 8.879162e-14 -8.243051e-05
3.262264e-02 -1.551569e-13 5.968788e-04
3.017576e-02 -6.424687e-14 5.376043e-03
2.480296e-02 -2.477250e-13 6.746076e-03
1.661158e-02 -9.395302e-14 2.162683e-02
0.000000e+00 -3.311977e-13 4.072242e-02
0.000000e+00 -5.720911e-14 -1.329250e-02
1.454324e-03 -3.037629e-14 -1.120608e-02
4.257694e-03 7.780259e-14 -8.648177e-03
6.980125e-03 3.161770e-13 -7.302940e-03
9.249055e-03 4.476003e-13 -5.963338e-03
1.069864e-02 5.474511e-13 -4.906948e-03
1.104123e-02 1.642721e-13 -3.789155e-03
1.020699e-02 -2.172513e-13 -2.662676e-03
8.273399e-03 -7.020570e-13 -1.570764e-03
5.571295e-03 -8.423679e-13 -7.372953e-04
2.547096e-03 -9.077016e-13 -3.682119e-04
-2.389961e-04 -8.548340e-13 -5.885133e-04
-2.270045e-03 -8.874528e-13 -1.390146e-03
-3.410878e-03 -5.422005e-13 -2.601162e-03
-3.534598e-03 -2.540683e-13 -3.882354e-03
-2.634190e-03 -8.498431e-14 -5.000300e-03
-9.230986e-04 4.292782e-15 -5.871174e-03
1.384877e-03 -4.193961e-14 -6.484048e-03
4.056388e-03 -4.019947e-14 -6.871289e-03
6.997486e-03 -1.299441e-13 -7.031952e-03
1.004561e-02 -8.002091e-14 -6.973402e-03
1.309720e-02 -1.125554e-13 -6.682993e-03
1.597260e-02 -2.256427e-15 -6.199128e-03
1.856788e-02 -2.833977e-15 -5.554435e-03
2.073029e-02 2.273326e-14 -4.837180e-03
2.244153e-02 -7.049814e-14 -4.118589e-03
2.366899e-02 -1.405597e-13 -3.517585e-03
2.459450e-02 -2.709729e-13 -3.096869e-03
2.539485e-02 -4.545976e-13 -2.901954e-03
2.641747e-02 -5.410363e-13 -2.903790e-03
2.776693e-02 -5.346536e-13 -2.965295e-03
2.946593e-02 -3.020470e-13 -2.990116e-03
3.115358e-02 -1.564256e-13 -2.796611e-03
3.267239e-02 1.178396e-13 -2.335864e-03
3.360175e-02 3.907583e-14 -1.744100e-03
3.374075e-02 5.961768e-14 -8.243051e-05
3.262264e-02 -1.256303e-13 5.968788e-04
3.017576e-02 -7.496209e-14 5.376043e-03
2.480296e-02 -1.710754e-13 6.746076e-03
1.661158e-02 -1.200556e-13 2.162683e-02
0.000000e+00 -4.020183e-13 4.072242e-02
0.000000e+00 -9.279586e-14 -1.329250e-02
1.454324e-03 -7.105854e-14 -1.120608e-02
4.257694e-03 -5.682477e-14 -8.648177e-03
6.980125e-03 6.511069e-14 -7.302940e-03
9.249055e-03 4.284539e-14 -5.963338e-03
1.069864e-02 1.096455e-13 -4.906948e-03
1.104123e-02 -9.865852e-14 -3.789155e-03
1.020699e-02 -3.014972e-13 -2.662676e-03
8.273399e-03 -5.619126e-13 -1.570764e-03
5.571295e-03 -6.465671e-13 -7.372953e-04
2.547096e-03 -7.089801e-13 -3.682119e-04
-2.389961e-04 -6.176377e-13 -5.885133e-04
-2.270045e-03 -6.072264e-13 -1.390146e-03
-3.410878e-03 -3.717902e-13 -2.601162e-03
-3.534598e-03 -2.021940e-13 -3.882354e-03
-2.634190e-03 -7.519437e-14 -5.000300e-03
-9.230986e-04 4.202276e-16 -5.871174e-03
1.384877e-03 -1.019621e-14 -6.484048e-03
4.056388e-03 -2.064382e-15 -6.871289e-03
6.997486e-03 -8.575195e-14 -7.031952e-03
1.004561e-02 -2.593803e-14 -6.973402e-03
1.309720e-02 -7.540580e-14 -6.682993e-03
1.597260e-02 2.120376e-14 -6.199128e-03
1.856788e-02 5.227630e-14 -5.554435e-03
2.073029e-02 1.075522e-13 -4.837180e-03
2.244153e-02 8.427207e-14 -4.118589e-03
2.366899e-02 8.939003e-14 -3.517585e-03
2.459450e-02 3.407696e-14 -3.096869e-03
2.539485e-02 -1.935687e-13 -2.901954e-03
2.641747e-02 -4.243931e-13 -2.903790e-03
2.776693e-02 -7.078092e-13 -2.965295e-03
2.946593e-02 -6.700408e-13 -2.990116e-03
3.115358e-02 -5.655320e-13 -2.796611e-03
3.267239e-02 -1.493987e-13 -2.335864e-03
3.360175e-02 -1.175719e-13 -1.744100e-03
3.374075e-02 3.820951e-14 -8.243051e-05
3.262264e-02 -1.178179e-13 5.968788e-04
3.017576e-02 -3.204024e-15 5.376043e-03
2.480296e-02 -1.553324e-13 6.746076e-03
1.661158e-02 -1.612804e-14 2.162683e-02
0.000000e+00 -3.747821e-13 4.072242e-02
0.000000e+00 -1.271001e-13 -1.329250e-02
1.454324e-03 -1.211922e-13 -1.120608e-02
4.257694e-03 -1.538657e-13 -8.648177e-03
6.980125e-03 -1.627384e-13 -7.302940e-03
9.249055e-03 -3.137730e-13 -5.963338e-03
1.069864e-02 -3.191416e-13 -4.906948e-03
1.104123e-02 -3.028229e-13 -3.789155e-03
1.020699e-02 -3.020531e-13 -2.662676e-03
8.273399e-03 -2.539728e-13 -1.570764e-03
5.571295e-03 -2.691397e-13 -7.372953e-04
2.547096e-03 -2.865528e-13 -3.682119e-04
-2.389961e-04 -2.013846e-13 -5.885133e-04
-2.270045e-03 -1.432809e-13 -1.390146e-03
-3.410878e-03 -9.460211e-14 -2.601162e-03
-3.534598e-03 -8.929017e-14 -3.882354e-03
-2.634190e-03 -5.176828e-14 -5.000300e-03
-9.230986e-04 -3.658173e-14 -5.871174e-03
1.384877e-03 -3.362647e-14 -6.484048e-03
4.056388e-03 -2.310341e-14 -6.871289e-03
6.997486e-03 -9.504890e-14 -7.031952e-03
1.004561e-02 -4.647681e-14 -6.973402e-03
1.309720e-02 -8.911640e-14 -6.682993e-03
1.597260e-02 9.455382e-15 -6.199128e-03
1.856788e-02 1.462604e-14 -5.554435e-03
2.073029e-02 7.436952e-14 -4.837180e-03
2.244153e-02 3.634342e-14 -4.118589e-03
2.366899e-02 3.190586e-14 -3.517585e-03
2.459450e-02 -5.115445e-14 -3.096869e-03
2.539485e-02 -2.248596e-13 -2.901954e-03
2.641747e-02 -3.893330e-13 -2.903790e-03
2.776693e-02 -5.471716e-13 -2.965295e-03
2.946593e-02 -5.201574e-13 -2.990116e-03
3.115358e-02 -4.481954e-13 -2.796611e-03
3.267239e-02 -1.501310e-13 -2.335864e-03
3.360175e-02 -1.238916e-13 -1.744100e-03
3.374075e-02 -8.371994e-15 -8.243051e-05
3.262264e-02 -1.090379e-13 5.968788e-04
3.017576e-02 -3.518622e-14 5.376043e-03
2.480296e-02 -1.101849e-13 6.746076e-03
1.661158e-02 -2.692787e-14 2.162683e-02
0.000000e+00 -2.773455e-13 4.072242e-02
0.000000e+00 -9.393175e-14 -1.329250e-02
1.454324e-03 -9.849015e-14 -1.120608e-02
4.257694e-03 -1.439375e-13 -8.648177e-03
6.980125e-03 -1.464606e-13 -7.302940e-03
9.249055e-03 -2.705537e-13 -5.963338e-03
1.069864e-02 -2.648176e-13 -4.906948e-03
1.104123e-02 -2.042293e-13 -3.789155e-03