# vtk DataFile Version 3.0
vtk output
ASCII
DATASET UNSTRUCTURED_GRID
POINTS 11767 float
0.000000e+00 0.000000e+00 0.000000e+00
1.460000e-02 0.000000e+00 0.000000e+00
2.920000e-02 0.000000e+00 0.000000e+00
4.380000e-02 0.000000e+00 0.000000e+00
5.840000e-02 0.000000e+00 0.000000e+00
7.300000e-02 0.000000e+00 0.000000e+00
8.760000e-02 0.000000e+00 0.000000e+00
1.022000e-01 0.000000e+00 0.000000e+00
1.168000e-01 0.000000e+00 0.000000e+00
1.314000e-01 0.000000e+00 0.000000e+00
1.460000e-01 0.000000e+00 0.000000e+00
1.606000e-01 0.000000e+00 0.000000e+00
1.752000e-01 0.000000e+00 0.000000e+00
1.898000e-01 0.000000e+00 0.000000e+00
2.044000e-01 0.000000e+00 0.000000e+00
2.190000e-01 0.000000e+00 0.000000e+00
2.336000e-01 0.000000e+00 0.000000e+00
2.482000e-01 0.000000e+00 0.000000e+00
2.628000e-01 0.000000e+00 0.000000e+00
2.774000e-01 0.000000e+00 0.000000e+00
2.920000e-01 0.000000e+00 0.000000e+00
3.066000e-01 0.000000e+00 0.000000e+00
3.212000e-01 0.000000e+00 0.000000e+00
3.358000e-01 0.000000e+00 0.000000e+00
3.504000e-01 0.000000e+00 0.000000e+00
3.650000e-01 0.000000e+00 0.000000e+00
3.796000e-01 0.000000e+00 0.000000e+00
3.942000e-01 0.000000e+00 0.000000e+00
4.088000e-01 0.000000e+00 0.000000e+00
4.234000e-01 0.000000e+00 0.000000e+00
4.380000e-01 0.000000e+00 0.000000e+00
4.526000e-01 0.000000e+00 0.000000e+00
4.672000e-01 0.000000e+00 0.000000e+00
4.818000e-01 0.000000e+00 0.000000e+00
4.964000e-01 0.000000e+00 0.000000e+00
5.110000e-01 0.000000e+00 0.000000e+00
5.256000e-01 0.000000e+00 0.000000e+00
5.402000e-01 0.000000e+00 0.000000e+00
5.548000e-01 0.000000e+00 0.000000e+00
5.694000e-01 0.000000e+00 0.000000e+00
5.840000e-01 0.000000e+00 0.000000e+00
0.000000e+00 1.460000e-02 0.000000e+00
1.460000e-02 1.460000e-02 0.000000e+00
2.920000e-02 1.460000e-02 0.000000e+00
4.380000e-02 1.460000e-02 0.000000e+00
5.840000e-02 1.460000e-02 0.000000e+00
7.300000e-02 1.460000e-02 0.000000e+00
8.760000e-02 1.460000e-02 0.000000e+00
1.022000e-01 1.460000e-02 0.000000e+00
1.168000e-01 1.460000e-02 0.000000e+00
1.314000e-01 1.460000e-02 0.000000e+00
1.460000e-01 1.460000e-02 0.000000e+00
1.606000e-01 1.460000e-02 0.000000e+00
1.752000e-01 1.460000e-02 0.000000e+00
1.898000e-01 1.460000e-02 0.000000e+00
2.044000e-01 1.460000e-02 0.000000e+00
2.190000e-01 1.460000e-02 0.000000e+00
2.336000e-01 1.460000e-02 0.000000e+00
2.482000e-01 1.460000e-02 0.000000e+00
2.628000e-01 1.460000e-02 0.000000e+00
2.774000e-01 1.460000e-02 0.000000e+00
2.920000e-01 1.460000e-02 0.000000e+00
3.066000e-01 1.460000e-02 0.000000e+00
3.212000e-01 1.460000e-02 0.000000e+00
3.358000e-01 1.460000e-02 0.000000e+00
3.504000e-01 1.460000e-02 0.000000e+00
3.650000e-01 1.460000e-02 0.000000e+00
3.796000e-01 1.460000e-02 0.000000e+00
3.942000e-01 1.460000e-02 0.000000e+00
4.088000e-01 1.460000e-02 0.000000e+00
4.234000e-01 1.460000e-02 0.000000e+00
4.380000e-01 1.460000e-02 0.000000e+00
4.526000e-01 1.460000e-02 0.000000e+00
4.672000e-01 1.460000e-02 0.000000e+00
4.818000e-01 1.460000e-02 0.000000e+00
4.964000e-01 1.460000e-02 0.000000e+00
5.110000e-01 1.460000e-02 0.000000e+00
5.256000e-01 1.460000e-02 0.000000e+00
5.402000e-01 1.460000e-02 0.000000e+00
5.548000e-01 1.460000e-02 0.000000e+00
5.694000e-01 1.460000e-02 0.000000e+00
5.840000e-01 1.460000e-02 0.000000e+00
0.000000e+00 2.920000e-02 0.000000e+00
1.460000e-02 2.920000e-02 0.000000e+00
2.920000e-02 2.920000e-02 0.000000e+00
4.380000e-02 2.920000e-02 0.000000e+00
5.840000e-02 2.920000e-02 0.000000e+00
7.300000e-02 2.920000e-02 0.000000e+00
8.760000e-02 2.920000e-02 0.000000e+00
1.022000e-01 2.920000e-02 0.000000e+00
1.168000e-01 2.920000e-02 0.000000e+00
1.314000e-01 2.920000e-02 0.000000e+00
1.460000e-01 2.920000e-02 0.000000e+00
1.606000e-01 2.920000e-02 0.000000e+00
1.752000e-01 2.920000e-02 0.000000e+00
1.898000e-01 2.920000e-02 0.000000e+00
2.044000e-01 2.920000e-02 0.000000e+00
2.190000e-01 2.920000e-02 0.000000e+00
2.336000e-01 2.920000e-02 0.000000e+00
2.482000e-01 2.920000e-02 0.000000e+00
2.628000e-01 2.920000e-02 0.000000e+00
2.774000e-01 2.920000e-02 0.000000e+00
2.920000e-01 2.920000e-02 0.000000e+00
3.066000e-01 2.920000e-02 0.000000e+00
3.212000e-01 2.920000e-02 0.000000e+00
3.358000e-01 2.920000e-02 0.000000e+00
3.504000e-01 2.920000e-02 0.000000e+00
3.650000e-01 2.920000e-02 0.000000e+00
3.796000e-01 2.920000e-02 0.000000e+00
3.942000e-01 2.920000e-02 0.000000e+00
4.088000e-01 2.920000e-02 0.000000e+00
4.234000e-01 2.920000e-02 0.000000e+00
4.380000e-01 2.920000e-02 0.000000e+00
4.526000e-01 2.920000e-02 0.000000e+00
4.672000e-01 2.920000e-02 0.000000e+00
4.818000e-01 2.920000e-02 0.000000e+00
4.964000e-01 2.920000e-02 0.000000e+00
5.110000e-01 2.920000e-02 0.000000e+00
5.256000e-01 2.920000e-02 0.000000e+00
5.402000e-01 2.920000e-02 0.000000e+00
5.548000e-01 2.920000e-02 0.000000e+00
5.694000e-01 2.920000e-02 0.000000e+00
5.840000e-01 2.920000e-02 0.000000e+00
0.000000e+00 4.380000e-02 0.000000e+00
1.460000e-02 4.380000e-02 0.000000e+00
2.920000e-02 4.380000e-02 0.000000e+00
4.380000e-02 4.380000e-02 0.000000e+00
5.840000e-02 4.380000e-02 0.000000e+00
7.300000e-02 4.380000e-02 0.000000e+00
8.760000e-02 4.380000e-02 0.000000e+00
1.022000e-01 4.380000e-02 0.000000e+00
1.168000e-01 4.380000e-02 0.000000e+00
1.314000e-01 4.380000e-02 0.000000e+00
1.460000e-01 4.380000e-02 0.000000e+00
1.606000e-01 4.380000e-02 0.000000e+00
1.752000e-01 4.380000e-02 0.000000e+00
1.898000e-01 4.380000e-02 0.000000e+00
2.044000e-01 4.380000e-02 0.000000e+00
2.190000e-01 4.380000e-02 0.000000e+00
2.336000e-01 4.380000e-02 0.000000e+00
2.482000e-01 4.380000e-02 0.000000e+00
2.628000e-01 4.380000e-02 0.000000e+00
2.774000e-01 4.380000e-02 0.000000e+00
2.920000e-01 4.380000e-02 0.000000e+00
3.066000e-01 4.380000e-02 0.000000e+00
3.212000e-01 4.380000e-02 0.000000e+00
3.358000e-01 4.380000e-02 0.000000e+00
3.504000e-01 4.380000e-02 0.000000e+00
3.650000e-01 4.380000e-02 0.000000e+00
3.796000e-01 4.380000e-02 0.000000e+00
3.942000e-01 4.380000e-02 0.000000e+00
4.088000e-01 4.380000e-02 0.000000e+00
4.234000e-01 4.380000e-02 0.000000e+00
4.380000e-01 4.380000e-02 0.000000e+00
4.526000e-01 4.380000e-02 0.000000e+00
4.672000e-01 4.380000e-02 0.000000e+00
4.818000e-01 4.380000e-02 0.000000e+00
4.964000e-01 4.380000e-02 0.000000e+00
5.110000e-01 4.380000e-02 0.000000e+00
5.256000e-01 4.380000e-02 0.000000e+00
5.402000e-01 4.380000e-02 0.000000e+00
5.548000e-01 4.380000e-02 0.000000e+00
5.694000e-01 4.380000e-02 0.000000e+00
5.840000e-01 4.380000e-02 0.000000e+00
0.000000e+00 5.840000e-02 0.000000e+00
1.460000e-02 5.840000e-02 0.000000e+00
2.920000e-02 5.840000e-02 0.000000e+00
4.380000e-02 5.840000e-02 0.000000e+00
5.840000e-02 5.840000e-02 0.000000e+00
7.300000e-02 5.840000e-02 0.000000e+00
8.760000e-02 5.840000e-02 0.000000e+00
1.022000e-01 5.840000e-02 0.000000e+00
1.168000e-01 5.840000e-02 0.000000e+00
1.314000e-01 5.840000e-02 0.000000e+00
1.460000e-01 5.840000e-02 0.000000e+00
1.606000e-01 5.840000e-02 0.000000e+00
1.752000e-01 5.840000e-02 0.000000e+00
1.898000e-01 5.840000e-02 0.000000e+00
2.044000e-01 5.840000e-02 0.000000e+00
2.190000e-01 5.840000e-02 0.000000e+00
2.336000e-01 5.840000e-02 0.000000e+00
2.482000e-01 5.840000e-02 0.000000e+00
2.628000e-01 5.840000e-02 0.000000e+00
2.774000e-01 5.840000e-02 0.000000e+00
2.920000e-01 5.840000e-02 0.000000e+00
3.066000e-01 5.840000e-02 0.000000e+00
3.212000e-01 5.840000e-02 0.000000e+00
3.358000e-01 5.840000e-02 0.000000e+00
3.504000e-01 5.840000e-02 0.000000e+00
3.650000e-01 5.840000e-02 0.000000e+00
3.796000e-01 5.840000e-02 0.000000e+00
3.942000e-01 5.840000e-02 0.000000e+00
4.088000e-01 5.840000e-02 0.000000e+00
4.234000e-01 5.840000e-02 0.000000e+00
4.380000e-01 5.840000e-02 0.000000e+00
4.526000e-01 5.840000e-02 0.000000e+00
4.672000e-01 5.840000e-02 0.000000e+00
4.818000e-01 5.840000e-02 0.000000e+00
4.964000e-01 5.840000e-02 0.000000e+00
5.110000e-01 5.840000e-02 0.000000e+00
5.256000e-01 5.840000e-02 0.000000e+00
5.402000e-01 5.840000e-02 0.000000e+00
5.548000e-01 5.840000e-02 0.000000e+00
5.694000e-01 5.840000e-02 0.000000e+00
5.840000e-01 5.840000e-02 0.000000e+00
0.000000e+00 7.300000e-02 0.000000e+00
1.460000e-02 7.300000e-02 0.000000e+00
2.920000e-02 7.300000e-02 0.000000e+00
4.380000e-02 7.300000e-02 0.000000e+00
5.840000e-02 7.300000e-02 0.000000e+00
7.300000e-02 7.300000e-02 0.000000e+00
8.760000e-02 7.300000e-02 0.000000e+00
1.022000e-01 7.300000e-02 0.000000e+00
1.168000e-01 7.300000e-02 0.000000e+00
1.314000e-01 7.300000e-02 0.000000e+00
1.460000e-01 7.300000e-02 0.000000e+00
1.606000e-01 7.300000e-02 0.000000e+00
1.752000e-01 7.300000e-02 0.000000e+00
1.898000e-01 7.300000e-02 0.000000e+00
2.044000e-01 7.300000e-02 0.000000e+00
2.190000e-01 7.300000e-02 0.000000e+00
2.336000e-01 7.300000e-02 0.000000e+00
2.482000e-01 7.300000e-02 0.000000e+00
2.628000e-01 7.300000e-02 0.000000e+00
2.774000e-01 7.300000e-02 0.000000e+00
2.920000e-01 7.300000e-02 0.000000e+00
3.066000e-01 7.300000e-02 0.000000e+00
3.212000e-01 7.300000e-02 0.000000e+00
3.358000e-01 7.300000e-02 0.000000e+00
3.504000e-01 7.300000e-02 0.000000e+00
3.650000e-01 7.300000e-02 0.000000e+00
3.796000e-01 7.300000e-02 0.000000e+00
3.942000e-01 7.300000e-02 0.000000e+00
4.088000e-01 7.300000e-02 0.000000e+00
4.234000e-01 7.300000e-02 0.000000e+00
4.380000e-01 7.300000e-02 0.000000e+00
4.526000e-01 7.300000e-02 0.000000e+00
4.672000e-01 7.300000e-02 0.000000e+00
4.818000e-01 7.300000e-02 0.000000e+00
4.964000e-01 7.300000e-02 0.000000e+00
5.110000e-01 7.300000e-02 0.000000e+00
5.256000e-01 7.300000e-02 0.000000e+00
5.402000e-01 7.300000e-02 0.000000e+00
5.548000e-01 7.300000e-02 0.000000e+00
5.694000e-01 7.300000e-02 0.000000e+00
5.840000e-01 7.300000e-02 0.000000e+00
0.000000e+00 8.760000e-02 0.000000e+00
1.460000e-02 8.760000e-02 0.000000e+00
2.920000e-02 8.760000e-02 0.000000e+00
4.380000e-02 8.760000e-02 0.000000e+00
5.840000e-02 8.760000e-02 0.000000e+00
7.300000e-02 8.760000e-02 0.000000e+00
8.760000e-02 8.760000e-02 0.000000e+00
1.022000e-01 8.760000e-02 0.000000e+00
[...]
POINT_DATA 11767
VECTORS Velocity float
0.000000e+00 0.000000e+00 0.000000e+00
2.258906e-02 0.000000e+00 0.000000e+00
3.450729e-02 0.000000e+00 0.000000e+00
4.345595e-02 0.000000e+00 0.000000e+00
4.908504e-02 0.000000e+00 0.000000e+00
5.287797e-02 0.000000e+00 0.000000e+00
5.471012e-02 0.000000e+00 0.000000e+00
5.497627e-02 0.000000e+00 0.000000e+00
5.386583e-02 0.000000e+00 0.000000e+00
5.185557e-02 0.000000e+00 0.000000e+00
4.956083e-02 0.000000e+00 0.000000e+00
4.750738e-02 0.000000e+00 0.000000e+00
4.596089e-02 0.000000e+00 0.000000e+00
4.519390e-02 0.000000e+00 0.000000e+00
4.507387e-02 0.000000e+00 0.000000e+00
4.530272e-02 0.000000e+00 0.000000e+00
4.542875e-02 0.000000e+00 0.000000e+00
4.507383e-02 0.000000e+00 0.000000e+00
4.399516e-02 0.000000e+00 0.000000e+00
4.242306e-02 0.000000e+00 0.000000e+00
4.080657e-02 0.000000e+00 0.000000e+00
3.955374e-02 0.000000e+00 0.000000e+00
3.873847e-02 0.000000e+00 0.000000e+00
3.830229e-02 0.000000e+00 0.000000e+00
3.806430e-02 0.000000e+00 0.000000e+00
3.813600e-02 0.000000e+00 0.000000e+00
3.865856e-02 0.000000e+00 0.000000e+00
3.997602e-02 0.000000e+00 0.000000e+00
4.218966e-02 0.000000e+00 0.000000e+00
4.546980e-02 0.000000e+00 0.000000e+00
4.972585e-02 0.000000e+00 0.000000e+00
5.471370e-02 0.000000e+00 0.000000e+00
6.011972e-02 0.000000e+00 0.000000e+00
6.509373e-02 0.000000e+00 0.000000e+00
6.906589e-02 0.000000e+00 0.000000e+00
7.114236e-02 0.000000e+00 0.000000e+00
6.989029e-02 0.000000e+00 0.000000e+00
6.603498e-02 0.000000e+00 0.000000e+00
5.435697e-02 0.000000e+00 0.000000e+00
4.086680e-02 0.000000e+00 0.000000e+00
0.000000e+00 0.000000e+00 0.000000e+00
0.000000e+00 -5.730960e-14 0.000000e+00
2.258906e-02 1.457166e-14 0.000000e+00
3.450729e-02 -1.008861e-15 0.000000e+00
4.345595e-02 -2.619307e-16 0.000000e+00
4.908504e-02 -9.990886e-15 0.000000e+00
5.287797e-02 -3.847735e-15 0.000000e+00
5.471012e-02 -3.423540e-14 0.000000e+00
5.497627e-02 -1.522743e-14 0.000000e+00
5.386583e-02 -4.127725e-14 0.000000e+00
5.185557e-02 -3.617384e-14 0.000000e+00
4.956083e-02 -2.079250e-14 0.000000e+00
4.750738e-02 -6.711348e-14 0.000000e+00
4.596089e-02 1.397986e-15 0.000000e+00
4.519390e-02 -5.730902e-14 0.000000e+00
4.507387e-02 -6.446648e-14 0.000000e+00
4.530272e-02 -3.268505e-14 0.000000e+00
4.542875e-02 -5.801636e-14 0.000000e+00
4.507383e-02 -3.757865e-14 0.000000e+00
4.399516e-02 -3.445636e-14 0.000000e+00
4.242306e-02 -3.574664e-14 0.000000e+00
4.080657e-02 -1.616118e-14 0.000000e+00
3.955374e-02 -1.949621e-14 0.000000e+00
3.873847e-02 -1.091488e-14 0.000000e+00
3.830229e-02 -1.396271e-14 0.000000e+00
3.806430e-02 -1.732851e-14 0.000000e+00
3.813600e-02 1.531046e-14 0.000000e+00
3.865856e-02 -3.677301e-14 0.000000e+00
3.997602e-02 2.046183e-14 0.000000e+00
4.218966e-02 -1.462667e-14 0.000000e+00
4.546980e-02 4.658623e-15 0.000000e+00
4.972585e-02 -9.644926e-15 0.000000e+00
5.471370e-02 8.083688e-15 0.000000e+00
6.011972e-02 -2.579213e-14 0.000000e+00
6.509373e-02 2.785497e-14 0.000000e+00
6.906589e-02 -1.846485e-14 0.000000e+00
7.114236e-02 4.266926e-14 0.000000e+00
6.989029e-02 -3.413392e-14 0.000000e+00
6.603498e-02 4.134820e-14 0.000000e+00
5.435697e-02 -5.610543e-14 0.000000e+00
4.086680e-02 5.552734e-14 0.000000e+00
0.000000e+00 3.780842e-14 0.000000e+00
0.000000e+00 -1.189880e-13 0.000000e+00
2.258906e-02 2.039575e-14 0.000000e+00
3.450729e-02 1.558815e-15 0.000000e+00
4.345595e-02 -1.362347e-14 0.000000e+00
4.908504e-02 -1.124074e-14 0.000000e+00
5.287797e-02 -7.908452e-15 0.000000e+00
5.471012e-02 -2.892983e-14 0.000000e+00
5.497627e-02 -1.567615e-14 0.000000e+00
5.386583e-02 -2.116382e-14 0.000000e+00
5.185557e-02 -4.856308e-14 0.000000e+00
4.956083e-02 -1.394001e-14 0.000000e+00
4.750738e-02 -9.865709e-14 0.000000e+00
4.596089e-02 9.703493e-15 0.000000e+00
4.519390e-02 -6.566275e-14 0.000000e+00
4.507387e-02 -8.211929e-14 0.000000e+00
4.530272e-02 -4.145525e-14 0.000000e+00
4.542875e-02 -6.247606e-14 0.000000e+00
4.507383e-02 -5.907775e-14 0.000000e+00
4.399516e-02 -4.625789e-14 0.000000e+00
4.242306e-02 -4.921436e-14 0.000000e+00
4.080657e-02 -2.060117e-14 0.000000e+00
3.955374e-02 -3.649653e-14 0.000000e+00
3.873847e-02 -9.332085e-15 0.000000e+00
3.830229e-02 -2.256130e-14 0.000000e+00
3.806430e-02 -1.845955e-14 0.000000e+00
3.813600e-02 1.226068e-14 0.000000e+00
3.865856e-02 -3.048864e-14 0.000000e+00
3.997602e-02 2.882940e-14 0.000000e+00
4.218966e-02 -1.238430e-14 0.000000e+00
4.546980e-02 7.082257e-15 0.000000e+00
4.972585e-02 -9.495415e-15 0.000000e+00
5.471370e-02 6.108014e-15 0.000000e+00
6.011972e-02 -1.547866e-14 0.000000e+00
6.509373e-02 1.335673e-14 0.000000e+00
6.906589e-02 3.773124e-15 0.000000e+00
7.114236e-02 2.153298e-14 0.000000e+00
6.989029e-02 -7.595639e-15 0.000000e+00
6.603498e-02 1.223776e-14 0.000000e+00
5.435697e-02 -6.581065e-15 0.000000e+00
4.086680e-02 3.440416e-14 0.000000e+00
0.000000e+00 5.220997e-15 0.000000e+00
0.000000e+00 -8.726216e-14 0.000000e+00
2.258906e-02 2.973089e-14 0.000000e+00
3.450729e-02 6.319702e-15 0.000000e+00
4.345595e-02 -1.507112e-14 0.000000e+00
4.908504e-02 -1.408089e-14 0.000000e+00
5.287797e-02 -3.828008e-15 0.000000e+00
5.471012e-02 -1.448568e-14 0.000000e+00
5.497627e-02 5.706544e-15 0.000000e+00
5.386583e-02 -6.463124e-15 0.000000e+00
5.185557e-02 -3.810591e-14 0.000000e+00
4.956083e-02 -5.124077e-15 0.000000e+00
4.750738e-02 -8.965778e-14 0.000000e+00
4.596089e-02 1.851132e-14 0.000000e+00
4.519390e-02 -5.572878e-14 0.000000e+00
4.507387e-02 -7.720904e-14 0.000000e+00
4.530272e-02 -3.066523e-14 0.000000e+00
4.542875e-02 -5.979444e-14 0.000000e+00
4.507383e-02 -4.495338e-14 0.000000e+00
4.399516e-02 -4.631695e-14 0.000000e+00
4.242306e-02 -4.524532e-14 0.000000e+00
4.080657e-02 -1.927840e-14 0.000000e+00
3.955374e-02 -2.547821e-14 0.000000e+00
3.873847e-02 -7.818795e-15 0.000000e+00
3.830229e-02 -9.737315e-15 0.000000e+00
3.806430e-02 -1.495548e-14 0.000000e+00
3.813600e-02 2.761581e-14 0.000000e+00
3.865856e-02 -3.441116e-14 0.000000e+00
3.997602e-02 4.003671e-14 0.000000e+00
4.218966e-02 -4.829090e-15 0.000000e+00
4.546980e-02 1.109717e-14 0.000000e+00
4.972585e-02 -7.056720e-15 0.000000e+00
5.471370e-02 8.825518e-15 0.000000e+00
6.011972e-02 -1.849568e-14 0.000000e+00
6.509373e-02 2.462988e-14 0.000000e+00
6.906589e-02 -2.175384e-15 0.000000e+00
7.114236e-02 4.194930e-14 0.000000e+00
6.989029e-02 -1.715732e-14 0.000000e+00
6.603498e-02 3.278144e-14 0.000000e+00
5.435697e-02 -2.879549e-14 0.000000e+00
4.086680e-02 6.048252e-14 0.000000e+00
0.000000e+00 -3.305113e-14 0.000000e+00
0.000000e+00 -9.462227e-14 0.000000e+00
2.258906e-02 1.439789e-14 0.000000e+00
3.450729e-02 1.018220e-15 0.000000e+00
4.345595e-02 -3.174036e-14 0.000000e+00
4.908504e-02 -9.634158e-15 0.000000e+00
5.287797e-02 -7.539045e-15 0.000000e+00
5.471012e-02 -1.993914e-14 0.000000e+00
5.497627e-02 -1.074177e-14 0.000000e+00
5.386583e-02 -1.546164e-14 0.000000e+00
5.185557e-02 -3.559955e-14 0.000000e+00
4.956083e-02 -4.527023e-15 0.000000e+00
4.750738e-02 -8.436383e-14 0.000000e+00
4.596089e-02 2.331127e-14 0.000000e+00
4.519390e-02 -5.475309e-14 0.000000e+00
4.507387e-02 -7.062961e-14 0.000000e+00
4.530272e-02 -3.254151e-14 0.000000e+00
4.542875e-02 -5.069813e-14 0.000000e+00
4.507383e-02 -4.753376e-14 0.000000e+00
4.399516e-02 -3.945603e-14 0.000000e+00
4.242306e-02 -4.358036e-14 0.000000e+00
4.080657e-02 -1.832883e-14 0.000000e+00
3.955374e-02 -2.391855e-14 0.000000e+00
3.873847e-02 -3.342975e-15 0.000000e+00
3.830229e-02 -1.205317e-14 0.000000e+00
3.806430e-02 -1.236719e-14 0.000000e+00
3.813600e-02 2.449746e-14 0.000000e+00
3.865856e-02 -2.713730e-14 0.000000e+00
3.997602e-02 3.579238e-14 0.000000e+00
4.218966e-02 -6.582550e-15 0.000000e+00
4.546980e-02 1.029250e-14 0.000000e+00
4.972585e-02 -9.150988e-15 0.000000e+00
5.471370e-02 8.931137e-15 0.000000e+00
6.011972e-02 -1.445058e-14 0.000000e+00
6.509373e-02 1.737267e-14 0.000000e+00
6.906589e-02 5.342273e-15 0.000000e+00
7.114236e-02 2.395616e-14 0.000000e+00
6.989029e-02 -4.288983e-15 0.000000e+00
6.603498e-02 9.955373e-15 0.000000e+00
5.435697e-02 -4.195701e-15 0.000000e+00
4.086680e-02 2.224918e-14 0.000000e+00
0.000000e+00 -4.905520e-14 0.000000e+00
0.000000e+00 -1.033157e-13 0.000000e+00
2.258906e-02 -3.698812e-14 0.000000e+00
3.450729e-02 -1.609308e-14 0.000000e+00
4.345595e-02 -1.857349e-14 0.000000e+00
4.908504e-02 -1.734443e-14 0.000000e+00
5.287797e-02 -9.622198e-15 0.000000e+00
5.471012e-02 -3.290569e-14 0.000000e+00
5.497627e-02 -1.425922e-14 0.000000e+00
5.386583e-02 -3.460646e-14 0.000000e+00
5.185557e-02 -3.401753e-14 0.000000e+00
4.956083e-02 -2.298455e-14 0.000000e+00
4.750738e-02 -5.850601e-14 0.000000e+00
4.596089e-02 4.942299e-15 0.000000e+00
4.519390e-02 -5.253416e-14 0.000000e+00
4.507387e-02 -6.043199e-14 0.000000e+00
4.530272e-02 -3.003836e-14 0.000000e+00
4.542875e-02 -5.027260e-14 0.000000e+00
4.507383e-02 -3.115883e-14 0.000000e+00
4.399516e-02 -3.199942e-14 0.000000e+00
4.242306e-02 -3.137165e-14 0.000000e+00
4.080657e-02 -2.139420e-14 0.000000e+00
3.955374e-02 -1.082130e-14 0.000000e+00
3.873847e-02 -1.436978e-14 0.000000e+00
3.830229e-02 -1.199716e-14 0.000000e+00
3.806430e-02 -1.736887e-14 0.000000e+00
3.813600e-02 1.675179e-14 0.000000e+00
3.865856e-02 -3.826437e-14 0.000000e+00
3.997602e-02 1.796761e-14 0.000000e+00
4.218966e-02 -1.576778e-14 0.000000e+00
4.546980e-02 -5.134040e-17 0.000000e+00
4.972585e-02 -1.599136e-14 0.000000e+00
5.471370e-02 3.169443e-15 0.000000e+00
6.011972e-02 -3.326698e-14 0.000000e+00
6.509373e-02 2.659216e-14 0.000000e+00
6.906589e-02 -2.358720e-14 0.000000e+00
7.114236e-02 3.838153e-14 0.000000e+00
6.989029e-02 -3.920058e-14 0.000000e+00
6.603498e-02 3.913085e-14 0.000000e+00
5.435697e-02 -6.209755e-14 0.000000e+00
4.086680e-02 6.626878e-14 0.000000e+00
0.000000e+00 5.444160e-14 0.000000e+00
0.000000e+00 0.000000e+00 0.000000e+00
2.258906e-02 0.000000e+00 0.000000e+00
3.450729e-02 0.000000e+00 0.000000e+00
4.345595e-02 0.000000e+00 0.000000e+00
4.908504e-02 0.000000e+00 0.000000e+00
5.287797e-02 0.000000e+00 0.000000e+00
5.471012e-02 0.000000e+00 0.000000e+00
5.497627e-02 0.000000e+00 0.000000e+00
5.386583e-02 0.000000e+00 0.000000e+00
5.185557e-02 0.000000e+00 0.000000e+00
4.956083e-02 0.000000e+00 0.000000e+00
4.750738e-02 0.000000e+00 0.000000e+00
4.596089e-02 0.000000e+00 0.000000e+00
4.519390e-02 0.000000e+00 0.000000e+00
4.507387e-02 0.000000e+00 0.000000e+00
4.530272e-02 0.000000e+00 0.000000e+00
4.542875e-02 0.000000e+00 0.000000e+00
4.507383e-02 0.000000e+00 0.000000e+00
4.399516e-02 0.000000e+00 0.000000e+00
4.242306e-02 0.000000e+00 0.000000e+00
4.080657e-02 0.000000e+00 0.000000e+00
3.955374e-02 0.000000e+00 0.000000e+00
3.873847e-02 0.000000e+00 0.000000e+00
3.830229e-02 0.000000e+00 0.000000e+00
3.806430e-02 0.000000e+00 0.000000e+00
3.813600e-02 0.000000e+00 0.000000e+00
3.865856e-02 0.000000e+00 0.000000e+00
3.997602e-02 0.000000e+00 0.000000e+00
4.218966e-02 0.000000e+00 0.000000e+00
4.546980e-02 0.000000e+00 0.000000e+00
4.972585e-02 0.000000e+00 0.000000e+00
5.471370e-02 0.000000e+00 0.000000e+00
6.011972e-02 0.000000e+00 0.000000e+00
6.509373e-02 0.000000e+00 0.000000e+00
6.906589e-02 0.000000e+00 0.000000e+00
7.114236e-02 0.000000e+00 0.000000e+00
6.989029e-02 0.000000e+00 0.000000e+00
6.603498e-02 0.000000e+00 0.000000e+00
5.435697e-02 0.000000e+00 0.000000e+00
4.086680e-02 0.000000e+00 0.000000e+00
0.000000e+00 0.000000e+00 0.000000e+00
0.000000e+00 0.000000e+00 -2.072575e-02
4.581192e-03 0.000000e+00 -1.565609e-02
1.003149e-02 0.000000e+00 -1.040202e-02
1.388379e-02 0.000000e+00 -8.498680e-03
1.666202e-02 0.000000e+00 -6.133094e-03
1.780578e-02 0.000000e+00 -4.498829e-03
1.743343e-02 0.000000e+00 -2.674482e-03
1.509097e-02 0.000000e+00 -1.075055e-03
1.106976e-02 0.000000e+00 2.390572e-04
5.731350e-03 0.000000e+00 9.489574e-04
-7.822257e-05 0.000000e+00 9.790857e-04
-5.673882e-03 0.000000e+00 5.225423e-04
-1.027452e-02 0.000000e+00 -3.579436e-04
-1.333980e-02 0.000000e+00 -1.456839e-03
-1.453285e-02 0.000000e+00 -2.417364e-03
-1.406883e-02 0.000000e+00 -2.971714e-03
-1.252353e-02 0.000000e+00 -2.993146e-03
-1.074359e-02 0.000000e+00 -2.462318e-03
-9.682565e-03 0.000000e+00 -1.625695e-03
-1.000983e-02 0.000000e+00 -9.144123e-04
-1.185100e-02 0.000000e+00 -5.799455e-04
-1.480818e-02 0.000000e+00 -6.113031e-04
-1.813040e-02 0.000000e+00 -9.342883e-04
-2.093393e-02 0.000000e+00 -1.403857e-03
-2.265678e-02 0.000000e+00 -1.975501e-03
-2.304612e-02 0.000000e+00 -2.670429e-03
-2.205015e-02 0.000000e+00 -3.585757e-03
-1.949799e-02 0.000000e+00 -4.686234e-03
-1.541635e-02 0.000000e+00 -5.866873e-03
-9.788596e-03 0.000000e+00 -7.069464e-03
-2.877704e-03 0.000000e+00 -8.023638e-03
5.001473e-03 0.000000e+00 -8.692062e-03
1.320901e-02 0.000000e+00 -8.689460e-03
2.090440e-02 0.000000e+00 -7.841266e-03
2.715734e-02 0.000000e+00 -6.448035e-03
3.117583e-02 0.000000e+00 -3.430469e-03
3.231477e-02 0.000000e+00 -1.371941e-03
3.111881e-02 0.000000e+00 4.428880e-03
2.571967e-02 0.000000e+00 6.520626e-03
1.690777e-02 0.000000e+00 1.927533e-02
0.000000e+00 0.000000e+00 3.599018e-02
0.000000e+00 1.808190e-14 -2.072575e-02
4.581192e-03 -1.143148e-14 -1.565609e-02
1.003149e-02 -1.155512e-14 -1.040202e-02
1.388379e-02 -1.192466e-15 -8.498680e-03
1.666202e-02 -2.332199e-14 -6.133094e-03
1.780578e-02 -8.056079e-15 -4.498829e-03
1.743343e-02 -1.495173e-14 -2.674482e-03
1.509097e-02 4.633607e-15 -1.075055e-03
1.106976e-02 -1.998019e-14 2.390572e-04
5.731350e-03 -1.291195e-14 9.489574e-04
-7.822257e-05 -3.362133e-14 9.790857e-04
-5.673882e-03 -3.491928e-14 5.225423e-04
-1.027452e-02 -1.977914e-14 -3.579436e-04
-1.333980e-02 -5.216005e-14 -1.456839e-03
-1.453285e-02 9.527977e-15 -2.417364e-03
-1.406883e-02 -2.174512e-14 -2.971714e-03
-1.252353e-02 -3.285545e-14 -2.993146e-03
-1.074359e-02 -1.236464e-14 -2.462318e-03
-9.682565e-03 -2.925398e-14 -1.625695e-03
-1.000983e-02 -2.080058e-14 -9.144123e-04
-1.185100e-02 2.568239e-14 -5.799455e-04
-1.480818e-02 1.496159e-14 -6.113031e-04
-1.813040e-02 5.205316e-14 -9.342883e-04
-2.093393e-02 1.795178e-14 -1.403857e-03
-2.265678e-02 4.754517e-14 -1.975501e-03
-2.304612e-02 2.896899e-14 -2.670429e-03
-2.205015e-02 2.095621e-14 -3.585757e-03
-1.949799e-02 3.704954e-14 -4.686234e-03
-1.541635e-02 9.690273e-15 -5.866873e-03
-9.788596e-03 2.819714e-14 -7.069464e-03
-2.877704e-03 -1.017916e-15 -8.023638e-03
5.001473e-03 1.233264e-14 -8.692062e-03
1.320901e-02 -1.507093e-14 -8.689460e-03
2.090440e-02 3.602079e-14 -7.841266e-03
2.715734e-02 -2.499738e-14 -6.448035e-03
3.117583e-02 3.181957e-14 -3.430469e-03
3.231477e-02 -2.983992e-14 -1.371941e-03
3.111881e-02 3.567720e-14 4.428880e-03
2.571967e-02 -5.985006e-14 6.520626e-03
1.690777e-02 5.610092e-14 1.927533e-02
0.000000e+00 6.863197e-15 3.599018e-02
0.000000e+00 -8.435177e-16 -2.072575e-02
4.581192e-03 -3.639674e-14 -1.565609e-02
1.003149e-02 -2.500810e-14 -1.040202e-02
1.388379e-02 -7.999963e-15 -8.498680e-03
1.666202e-02 -3.454072e-14 -6.133094e-03
1.780578e-02 -7.315309e-15 -4.498829e-03
1.743343e-02 -3.368940e-14 -2.674482e-03
1.509097e-02 -1.504115e-14 -1.075055e-03
1.106976e-02 -4.567350e-14 2.390572e-04
5.731350e-03 -3.320366e-14 9.489574e-04
-7.822257e-05 -5.011579e-14 9.790857e-04
-5.673882e-03 -5.556781e-14 5.225423e-04
-1.027452e-02 -2.093185e-14 -3.579436e-04
-1.333980e-02 -8.387225e-14 -1.456839e-03
-1.453285e-02 5.465715e-15 -2.417364e-03
-1.406883e-02 -3.900395e-14 -2.971714e-03
-1.252353e-02 -4.385766e-14 -2.993146e-03
-1.074359e-02 -3.643052e-14 -2.462318e-03
-9.682565e-03 -2.575937e-14 -1.625695e-03
-1.000983e-02 -3.651114e-14 -9.144123e-04
-1.185100e-02 3.452786e-14 -5.799455e-04
-1.480818e-02 1.135809e-14 -6.113031e-04
-1.813040e-02 7.701013e-14 -9.342883e-04
-2.093393e-02 2.264821e-14 -1.403857e-03
-2.265678e-02 6.382526e-14 -1.975501e-03
-2.304612e-02 3.961318e-14 -2.670429e-03
-2.205015e-02 4.649150e-14 -3.585757e-03
-1.949799e-02 4.424153e-14 -4.686234e-03
-1.541635e-02 2.017770e-14 -5.866873e-03
-9.788596e-03 3.827612e-14 -7.069464e-03
-2.877704e-03 8.055571e-15 -8.023638e-03
5.001473e-03 2.225994e-14 -8.692062e-03
1.320901e-02 -1.033746e-15 -8.689460e-03
2.090440e-02 2.620712e-14 -7.841266e-03
2.715734e-02 -1.215098e-14 -6.448035e-03
3.117583e-02 1.228434e-14 -3.430469e-03
3.231477e-02 -7.162206e-15 -1.371941e-03
3.111881e-02 1.265181e-14 4.428880e-03
2.571967e-02 -3.495226e-14 6.520626e-03
1.690777e-02 3.174853e-14 1.927533e-02
0.000000e+00 2.845287e-14 3.599018e-02
0.000000e+00 1.681422e-14 -2.072575e-02
4.581192e-03 -3.349429e-14 -1.565609e-02
1.003149e-02 -3.012388e-14 -1.040202e-02
1.388379e-02 -6.343036e-15 -8.498680e-03
1.666202e-02 -3.100058e-14 -6.133094e-03
1.780578e-02 -4.811058e-15 -4.498829e-03
1.743343e-02 -4.202469e-14 -2.674482e-03
1.509097e-02 -3.389255e-14 -1.075055e-03
1.106976e-02 -6.421079e-14 2.390572e-04
5.731350e-03 -4.351323e-14 9.489574e-04
-7.822257e-05 -4.633042e-14 9.790857e-04
-5.673882e-03 -5.892239e-14 5.225423e-04
-1.027452e-02 -3.030043e-14 -3.579436e-04
-1.333980e-02 -8.939650e-14 -1.456839e-03
-1.453285e-02 2.395467e-15 -2.417364e-03
-1.406883e-02 -4.260512e-14 -2.971714e-03
-1.252353e-02 -4.214625e-14 -2.993146e-03
-1.074359e-02 -2.797781e-14 -2.462318e-03
-9.682565e-03 -2.233112e-14 -1.625695e-03
-1.000983e-02 -2.141802e-14 -9.144123e-04
-1.185100e-02 3.758333e-14 -5.799455e-04
-1.480818e-02 1.365885e-14 -6.113031e-04
-1.813040e-02 7.413289e-14 -9.342883e-04
-2.093393e-02 3.136842e-14 -1.403857e-03
-2.265678e-02 6.704567e-14 -1.975501e-03
-2.304612e-02 4.903706e-14 -2.670429e-03
-2.205015e-02 4.077107e-14 -3.585757e-03
-1.949799e-02 6.123432e-14 -4.686234e-03
-1.541635e-02 1.628652e-14 -5.866873e-03
-9.788596e-03 4.928406e-14 -7.069464e-03
-2.877704e-03 4.532576e-15 -8.023638e-03
5.001473e-03 3.075146e-14 -8.692062e-03
1.320901e-02 -4.124565e-15 -8.689460e-03
2.090440e-02 3.979737e-14 -7.841266e-03
2.715734e-02 -1.705087e-14 -6.448035e-03
3.117583e-02 2.793463e-14 -3.430469e-03
3.231477e-02 -3.004328e-14 -1.371941e-03
3.111881e-02 2.590883e-14 4.428880e-03
2.571967e-02 -7.287012e-14 6.520626e-03
1.690777e-02 6.286767e-14 1.927533e-02
0.000000e+00 1.396229e-14 3.599018e-02
0.000000e+00 2.301747e-15 -2.072575e-02
4.581192e-03 -3.972601e-14 -1.565609e-02
1.003149e-02 -3.066106e-14 -1.040202e-02
1.388379e-02 -8.843822e-15 -8.498680e-03
1.666202e-02 -2.404988e-14 -6.133094e-03
1.780578e-02 -5.250848e-15 -4.498829e-03
1.743343e-02 -3.243197e-14 -2.674482e-03
1.509097e-02 -1.673331e-14 -1.075055e-03
1.106976e-02 -3.755808e-14 2.390572e-04
5.731350e-03 -2.861462e-14 9.489574e-04
-7.822257e-05 -4.004145e-14 9.790857e-04
-5.673882e-03 -4.541169e-14 5.225423e-04
-1.027452e-02 -2.375528e-14 -3.579436e-04
-1.333980e-02 -8.263326e-14 -1.456839e-03
-1.453285e-02 1.204327e-14 -2.417364e-03
-1.406883e-02 -3.824928e-14 -2.971714e-03
-1.252353e-02 -3.707878e-14 -2.993146e-03
-1.074359e-02 -3.030435e-14 -2.462318e-03
-9.682565e-03 -1.831349e-14 -1.625695e-03
-1.000983e-02 -2.667049e-14 -9.144123e-04
-1.185100e-02 3.329876e-14 -5.799455e-04
-1.480818e-02 7.027646e-15 -6.113031e-04
-1.813040e-02 6.848089e-14 -9.342883e-04
-2.093393e-02 1.974648e-14 -1.403857e-03
-2.265678e-02 5.773084e-14 -1.975501e-03
-2.304612e-02 4.809291e-14 -2.670429e-03
-2.205015e-02 4.385157e-14 -3.585757e-03
-1.949799e-02 5.983575e-14 -4.686234e-03
-1.541635e-02 1.671046e-14 -5.866873e-03
-9.788596e-03 4.514925e-14 -7.069464e-03
-2.877704e-03 8.393245e-15 -8.023638e-03
5.001473e-03 3.391864e-14 -8.692062e-03
1.320901e-02 -3.284265e-15 -8.689460e-03
2.090440e-02 3.076420e-14 -7.841266e-03
2.715734e-02 -1.379070e-14 -6.448035e-03
3.117583e-02 1.119287e-14 -3.430469e-03
3.231477e-02 -1.078311e-14 -1.371941e-03
3.111881e-02 1.076596e-14 4.428880e-03
2.571967e-02 -3.848030e-14 6.520626e-03
1.690777e-02 2.801240e-14 1.927533e-02
0.000000e+00 1.345868e-14 3.599018e-02
0.000000e+00 -3.175086e-14 -2.072575e-02
4.581192e-03 -5.128017e-14 -1.565609e-02
1.003149e-02 -2.283999e-14 -1.040202e-02
1.388379e-02 -7.676473e-15 -8.498680e-03
1.666202e-02 -2.222976e-14 -6.133094e-03
1.780578e-02 -1.756491e-15 -4.498829e-03