# vtk DataFile Version 3.0
vtk output
ASCII
DATASET UNSTRUCTURED_GRID
POINTS 11767 float
0.000000e+00 0.000000e+00 0.000000e+00
1.460000e-02 0.000000e+00 0.000000e+00
2.920000e-02 0.000000e+00 0.000000e+00
4.380000e-02 0.000000e+00 0.000000e+00
5.840000e-02 0.000000e+00 0.000000e+00
7.300000e-02 0.000000e+00 0.000000e+00
8.760000e-02 0.000000e+00 0.000000e+00
1.022000e-01 0.000000e+00 0.000000e+00
1.168000e-01 0.000000e+00 0.000000e+00
1.314000e-01 0.000000e+00 0.000000e+00
1.460000e-01 0.000000e+00 0.000000e+00
1.606000e-01 0.000000e+00 0.000000e+00
1.752000e-01 0.000000e+00 0.000000e+00
1.898000e-01 0.000000e+00 0.000000e+00
2.044000e-01 0.000000e+00 0.000000e+00
2.190000e-01 0.000000e+00 0.000000e+00
2.336000e-01 0.000000e+00 0.000000e+00
2.482000e-01 0.000000e+00 0.000000e+00
2.628000e-01 0.000000e+00 0.000000e+00
2.774000e-01 0.000000e+00 0.000000e+00
2.920000e-01 0.000000e+00 0.000000e+00
3.066000e-01 0.000000e+00 0.000000e+00
3.212000e-01 0.000000e+00 0.000000e+00
3.358000e-01 0.000000e+00 0.000000e+00
3.504000e-01 0.000000e+00 0.000000e+00
3.650000e-01 0.000000e+00 0.000000e+00
3.796000e-01 0.000000e+00 0.000000e+00
3.942000e-01 0.000000e+00 0.000000e+00
4.088000e-01 0.000000e+00 0.000000e+00
4.234000e-01 0.000000e+00 0.000000e+00
4.380000e-01 0.000000e+00 0.000000e+00
4.526000e-01 0.000000e+00 0.000000e+00
4.672000e-01 0.000000e+00 0.000000e+00
4.818000e-01 0.000000e+00 0.000000e+00
4.964000e-01 0.000000e+00 0.000000e+00
5.110000e-01 0.000000e+00 0.000000e+00
5.256000e-01 0.000000e+00 0.000000e+00
5.402000e-01 0.000000e+00 0.000000e+00
5.548000e-01 0.000000e+00 0.000000e+00
5.694000e-01 0.000000e+00 0.000000e+00
5.840000e-01 0.000000e+00 0.000000e+00
0.000000e+00 1.460000e-02 0.000000e+00
1.460000e-02 1.460000e-02 0.000000e+00
2.920000e-02 1.460000e-02 0.000000e+00
4.380000e-02 1.460000e-02 0.000000e+00
5.840000e-02 1.460000e-02 0.000000e+00
7.300000e-02 1.460000e-02 0.000000e+00
8.760000e-02 1.460000e-02 0.000000e+00
1.022000e-01 1.460000e-02 0.000000e+00
1.168000e-01 1.460000e-02 0.000000e+00
1.314000e-01 1.460000e-02 0.000000e+00
1.460000e-01 1.460000e-02 0.000000e+00
1.606000e-01 1.460000e-02 0.000000e+00
1.752000e-01 1.460000e-02 0.000000e+00
1.898000e-01 1.460000e-02 0.000000e+00
2.044000e-01 1.460000e-02 0.000000e+00
2.190000e-01 1.460000e-02 0.000000e+00
2.336000e-01 1.460000e-02 0.000000e+00
2.482000e-01 1.460000e-02 0.000000e+00
2.628000e-01 1.460000e-02 0.000000e+00
2.774000e-01 1.460000e-02 0.000000e+00
2.920000e-01 1.460000e-02 0.000000e+00
3.066000e-01 1.460000e-02 0.000000e+00
3.212000e-01 1.460000e-02 0.000000e+00
3.358000e-01 1.460000e-02 0.000000e+00
3.504000e-01 1.460000e-02 0.000000e+00
3.650000e-01 1.460000e-02 0.000000e+00
3.796000e-01 1.460000e-02 0.000000e+00
3.942000e-01 1.460000e-02 0.000000e+00
4.088000e-01 1.460000e-02 0.000000e+00
4.234000e-01 1.460000e-02 0.000000e+00
4.380000e-01 1.460000e-02 0.000000e+00
4.526000e-01 1.460000e-02 0.000000e+00
4.672000e-01 1.460000e-02 0.000000e+00
4.818000e-01 1.460000e-02 0.000000e+00
4.964000e-01 1.460000e-02 0.000000e+00
5.110000e-01 1.460000e-02 0.000000e+00
5.256000e-01 1.460000e-02 0.000000e+00
5.402000e-01 1.460000e-02 0.000000e+00
5.548000e-01 1.460000e-02 0.000000e+00
5.694000e-01 1.460000e-02 0.000000e+00
5.840000e-01 1.460000e-02 0.000000e+00
0.000000e+00 2.920000e-02 0.000000e+00
1.460000e-02 2.920000e-02 0.000000e+00
2.920000e-02 2.920000e-02 0.000000e+00
4.380000e-02 2.920000e-02 0.000000e+00
5.840000e-02 2.920000e-02 0.000000e+00
7.300000e-02 2.920000e-02 0.000000e+00
8.760000e-02 2.920000e-02 0.000000e+00
1.022000e-01 2.920000e-02 0.000000e+00
1.168000e-01 2.920000e-02 0.000000e+00
1.314000e-01 2.920000e-02 0.000000e+00
1.460000e-01 2.920000e-02 0.000000e+00
1.606000e-01 2.920000e-02 0.000000e+00
1.752000e-01 2.920000e-02 0.000000e+00
1.898000e-01 2.920000e-02 0.000000e+00
2.044000e-01 2.920000e-02 0.000000e+00
2.190000e-01 2.920000e-02 0.000000e+00
2.336000e-01 2.920000e-02 0.000000e+00
2.482000e-01 2.920000e-02 0.000000e+00
2.628000e-01 2.920000e-02 0.000000e+00
2.774000e-01 2.920000e-02 0.000000e+00
2.920000e-01 2.920000e-02 0.000000e+00
3.066000e-01 2.920000e-02 0.000000e+00
3.212000e-01 2.920000e-02 0.000000e+00
3.358000e-01 2.920000e-02 0.000000e+00
3.504000e-01 2.920000e-02 0.000000e+00
3.650000e-01 2.920000e-02 0.000000e+00
3.796000e-01 2.920000e-02 0.000000e+00
3.942000e-01 2.920000e-02 0.000000e+00
4.088000e-01 2.920000e-02 0.000000e+00
4.234000e-01 2.920000e-02 0.000000e+00
4.380000e-01 2.920000e-02 0.000000e+00
4.526000e-01 2.920000e-02 0.000000e+00
4.672000e-01 2.920000e-02 0.000000e+00
4.818000e-01 2.920000e-02 0.000000e+00
4.964000e-01 2.920000e-02 0.000000e+00
5.110000e-01 2.920000e-02 0.000000e+00
5.256000e-01 2.920000e-02 0.000000e+00
5.402000e-01 2.920000e-02 0.000000e+00
5.548000e-01 2.920000e-02 0.000000e+00
5.694000e-01 2.920000e-02 0.000000e+00
5.840000e-01 2.920000e-02 0.000000e+00
0.000000e+00 4.380000e-02 0.000000e+00
1.460000e-02 4.380000e-02 0.000000e+00
2.920000e-02 4.380000e-02 0.000000e+00
4.380000e-02 4.380000e-02 0.000000e+00
5.840000e-02 4.380000e-02 0.000000e+00
7.300000e-02 4.380000e-02 0.000000e+00
8.760000e-02 4.380000e-02 0.000000e+00
1.022000e-01 4.380000e-02 0.000000e+00
1.168000e-01 4.380000e-02 0.000000e+00
1.314000e-01 4.380000e-02 0.000000e+00
1.460000e-01 4.380000e-02 0.000000e+00
1.606000e-01 4.380000e-02 0.000000e+00
1.752000e-01 4.380000e-02 0.000000e+00
1.898000e-01 4.380000e-02 0.000000e+00
2.044000e-01 4.380000e-02 0.000000e+00
2.190000e-01 4.380000e-02 0.000000e+00
2.336000e-01 4.380000e-02 0.000000e+00
2.482000e-01 4.380000e-02 0.000000e+00
2.628000e-01 4.380000e-02 0.000000e+00
2.774000e-01 4.380000e-02 0.000000e+00
2.920000e-01 4.380000e-02 0.000000e+00
3.066000e-01 4.380000e-02 0.000000e+00
3.212000e-01 4.380000e-02 0.000000e+00
3.358000e-01 4.380000e-02 0.000000e+00
3.504000e-01 4.380000e-02 0.000000e+00
3.650000e-01 4.380000e-02 0.000000e+00
3.796000e-01 4.380000e-02 0.000000e+00
3.942000e-01 4.380000e-02 0.000000e+00
4.088000e-01 4.380000e-02 0.000000e+00
4.234000e-01 4.380000e-02 0.000000e+00
4.380000e-01 4.380000e-02 0.000000e+00
4.526000e-01 4.380000e-02 0.000000e+00
4.672000e-01 4.380000e-02 0.000000e+00
4.818000e-01 4.380000e-02 0.000000e+00
4.964000e-01 4.380000e-02 0.000000e+00
5.110000e-01 4.380000e-02 0.000000e+00
5.256000e-01 4.380000e-02 0.000000e+00
5.402000e-01 4.380000e-02 0.000000e+00
5.548000e-01 4.380000e-02 0.000000e+00
5.694000e-01 4.380000e-02 0.000000e+00
5.840000e-01 4.380000e-02 0.000000e+00
0.000000e+00 5.840000e-02 0.000000e+00
1.460000e-02 5.840000e-02 0.000000e+00
2.920000e-02 5.840000e-02 0.000000e+00
4.380000e-02 5.840000e-02 0.000000e+00
5.840000e-02 5.840000e-02 0.000000e+00
7.300000e-02 5.840000e-02 0.000000e+00
8.760000e-02 5.840000e-02 0.000000e+00
1.022000e-01 5.840000e-02 0.000000e+00
1.168000e-01 5.840000e-02 0.000000e+00
1.314000e-01 5.840000e-02 0.000000e+00
1.460000e-01 5.840000e-02 0.000000e+00
1.606000e-01 5.840000e-02 0.000000e+00
1.752000e-01 5.840000e-02 0.000000e+00
1.898000e-01 5.840000e-02 0.000000e+00
2.044000e-01 5.840000e-02 0.000000e+00
2.190000e-01 5.840000e-02 0.000000e+00
2.336000e-01 5.840000e-02 0.000000e+00
2.482000e-01 5.840000e-02 0.000000e+00
2.628000e-01 5.840000e-02 0.000000e+00
2.774000e-01 5.840000e-02 0.000000e+00
2.920000e-01 5.840000e-02 0.000000e+00
3.066000e-01 5.840000e-02 0.000000e+00
3.212000e-01 5.840000e-02 0.000000e+00
3.358000e-01 5.840000e-02 0.000000e+00
3.504000e-01 5.840000e-02 0.000000e+00
3.650000e-01 5.840000e-02 0.000000e+00
3.796000e-01 5.840000e-02 0.000000e+00
3.942000e-01 5.840000e-02 0.000000e+00
4.088000e-01 5.840000e-02 0.000000e+00
4.234000e-01 5.840000e-02 0.000000e+00
4.380000e-01 5.840000e-02 0.000000e+00
4.526000e-01 5.840000e-02 0.000000e+00
4.672000e-01 5.840000e-02 0.000000e+00
4.818000e-01 5.840000e-02 0.000000e+00
4.964000e-01 5.840000e-02 0.000000e+00
5.110000e-01 5.840000e-02 0.000000e+00
5.256000e-01 5.840000e-02 0.000000e+00
5.402000e-01 5.840000e-02 0.000000e+00
5.548000e-01 5.840000e-02 0.000000e+00
5.694000e-01 5.840000e-02 0.000000e+00
5.840000e-01 5.840000e-02 0.000000e+00
0.000000e+00 7.300000e-02 0.000000e+00
1.460000e-02 7.300000e-02 0.000000e+00
2.920000e-02 7.300000e-02 0.000000e+00
4.380000e-02 7.300000e-02 0.000000e+00
5.840000e-02 7.300000e-02 0.000000e+00
7.300000e-02 7.300000e-02 0.000000e+00
8.760000e-02 7.300000e-02 0.000000e+00
1.022000e-01 7.300000e-02 0.000000e+00
1.168000e-01 7.300000e-02 0.000000e+00
1.314000e-01 7.300000e-02 0.000000e+00
1.460000e-01 7.300000e-02 0.000000e+00
1.606000e-01 7.300000e-02 0.000000e+00
1.752000e-01 7.300000e-02 0.000000e+00
1.898000e-01 7.300000e-02 0.000000e+00
2.044000e-01 7.300000e-02 0.000000e+00
2.190000e-01 7.300000e-02 0.000000e+00
2.336000e-01 7.300000e-02 0.000000e+00
2.482000e-01 7.300000e-02 0.000000e+00
2.628000e-01 7.300000e-02 0.000000e+00
2.774000e-01 7.300000e-02 0.000000e+00
2.920000e-01 7.300000e-02 0.000000e+00
3.066000e-01 7.300000e-02 0.000000e+00
3.212000e-01 7.300000e-02 0.000000e+00
3.358000e-01 7.300000e-02 0.000000e+00
3.504000e-01 7.300000e-02 0.000000e+00
3.650000e-01 7.300000e-02 0.000000e+00
3.796000e-01 7.300000e-02 0.000000e+00
3.942000e-01 7.300000e-02 0.000000e+00
4.088000e-01 7.300000e-02 0.000000e+00
4.234000e-01 7.300000e-02 0.000000e+00
4.380000e-01 7.300000e-02 0.000000e+00
4.526000e-01 7.300000e-02 0.000000e+00
4.672000e-01 7.300000e-02 0.000000e+00
4.818000e-01 7.300000e-02 0.000000e+00
4.964000e-01 7.300000e-02 0.000000e+00
5.110000e-01 7.300000e-02 0.000000e+00
5.256000e-01 7.300000e-02 0.000000e+00
5.402000e-01 7.300000e-02 0.000000e+00
5.548000e-01 7.300000e-02 0.000000e+00
5.694000e-01 7.300000e-02 0.000000e+00
5.840000e-01 7.300000e-02 0.000000e+00
0.000000e+00 8.760000e-02 0.000000e+00
1.460000e-02 8.760000e-02 0.000000e+00
2.920000e-02 8.760000e-02 0.000000e+00
4.380000e-02 8.760000e-02 0.000000e+00
5.840000e-02 8.760000e-02 0.000000e+00
7.300000e-02 8.760000e-02 0.000000e+00
8.760000e-02 8.760000e-02 0.000000e+00
1.022000e-01 8.760000e-02 0.000000e+00
[...]
POINT_DATA 11767
VECTORS Velocity float
0.000000e+00 0.000000e+00 0.000000e+00
4.975191e-02 0.000000e+00 0.000000e+00
9.911226e-02 0.000000e+00 0.000000e+00
1.188343e-01 0.000000e+00 0.000000e+00
1.387361e-01 0.000000e+00 0.000000e+00
1.315586e-01 0.000000e+00 0.000000e+00
1.235289e-01 0.000000e+00 0.000000e+00
9.324125e-02 0.000000e+00 0.000000e+00
6.717451e-02 0.000000e+00 0.000000e+00
2.751364e-02 0.000000e+00 0.000000e+00
-1.488339e-03 0.000000e+00 0.000000e+00
-3.545308e-02 0.000000e+00 0.000000e+00
-5.868183e-02 0.000000e+00 0.000000e+00
-8.263663e-02 0.000000e+00 0.000000e+00
-9.822931e-02 0.000000e+00 0.000000e+00
-1.116451e-01 0.000000e+00 0.000000e+00
-1.193405e-01 0.000000e+00 0.000000e+00
-1.233074e-01 0.000000e+00 0.000000e+00
-1.237945e-01 0.000000e+00 0.000000e+00
-1.202618e-01 0.000000e+00 0.000000e+00
-1.149238e-01 0.000000e+00 0.000000e+00
-1.059779e-01 0.000000e+00 0.000000e+00
-9.666195e-02 0.000000e+00 0.000000e+00
-8.419714e-02 0.000000e+00 0.000000e+00
-7.263832e-02 0.000000e+00 0.000000e+00
-5.857358e-02 0.000000e+00 0.000000e+00
-4.607506e-02 0.000000e+00 0.000000e+00
-3.233562e-02 0.000000e+00 0.000000e+00
-2.009902e-02 0.000000e+00 0.000000e+00
-8.190132e-03 0.000000e+00 0.000000e+00
2.437684e-03 0.000000e+00 0.000000e+00
1.170521e-02 0.000000e+00 0.000000e+00
1.940188e-02 0.000000e+00 0.000000e+00
2.526536e-02 0.000000e+00 0.000000e+00
2.897051e-02 0.000000e+00 0.000000e+00
3.136880e-02 0.000000e+00 0.000000e+00
3.114768e-02 0.000000e+00 0.000000e+00
2.734564e-02 0.000000e+00 0.000000e+00
1.780705e-02 0.000000e+00 0.000000e+00
2.059996e-02 0.000000e+00 0.000000e+00
0.000000e+00 0.000000e+00 0.000000e+00
0.000000e+00 -2.031417e-15 0.000000e+00
4.975191e-02 -3.539240e-14 0.000000e+00
9.911226e-02 -8.661807e-15 0.000000e+00
1.188343e-01 3.804813e-15 0.000000e+00
1.387361e-01 -1.825500e-14 0.000000e+00
1.315586e-01 1.158571e-14 0.000000e+00
1.235289e-01 -1.975243e-14 0.000000e+00
9.324125e-02 9.950805e-15 0.000000e+00
6.717451e-02 -1.387782e-14 0.000000e+00
2.751364e-02 1.455891e-14 0.000000e+00
-1.488339e-03 -7.700185e-15 0.000000e+00
-3.545308e-02 -1.045188e-16 0.000000e+00
-5.868183e-02 -1.550091e-15 0.000000e+00
-8.263663e-02 8.114965e-16 0.000000e+00
-9.822931e-02 1.125463e-14 0.000000e+00
-1.116451e-01 -8.350664e-15 0.000000e+00
-1.193405e-01 3.814806e-15 0.000000e+00
-1.233074e-01 -2.696850e-15 0.000000e+00
-1.237945e-01 4.373714e-15 0.000000e+00
-1.202618e-01 -3.625206e-15 0.000000e+00
-1.149238e-01 -3.523294e-15 0.000000e+00
-1.059779e-01 -8.067611e-15 0.000000e+00
-9.666195e-02 8.466442e-15 0.000000e+00
-8.419714e-02 -1.659143e-14 0.000000e+00
-7.263832e-02 -4.273149e-16 0.000000e+00
-5.857358e-02 -1.829144e-14 0.000000e+00
-4.607506e-02 -1.613239e-15 0.000000e+00
-3.233562e-02 5.700744e-15 0.000000e+00
-2.009902e-02 -1.684682e-14 0.000000e+00
-8.190132e-03 6.013586e-15 0.000000e+00
2.437684e-03 2.208661e-15 0.000000e+00
1.170521e-02 2.275486e-14 0.000000e+00
1.940188e-02 2.624362e-14 0.000000e+00
2.526536e-02 3.909664e-14 0.000000e+00
2.897051e-02 1.246589e-14 0.000000e+00
3.136880e-02 6.314734e-14 0.000000e+00
3.114768e-02 -1.088844e-13 0.000000e+00
2.734564e-02 1.548088e-13 0.000000e+00
1.780705e-02 -1.842054e-13 0.000000e+00
2.059996e-02 8.622264e-14 0.000000e+00
0.000000e+00 -5.874163e-14 0.000000e+00
0.000000e+00 3.021745e-14 0.000000e+00
4.975191e-02 -3.542225e-14 0.000000e+00
9.911226e-02 9.995513e-15 0.000000e+00
1.188343e-01 -1.755276e-14 0.000000e+00
1.387361e-01 -1.492356e-14 0.000000e+00
1.315586e-01 -7.245755e-15 0.000000e+00
1.235289e-01 -5.434787e-15 0.000000e+00
9.324125e-02 -4.114444e-15 0.000000e+00
6.717451e-02 2.641573e-15 0.000000e+00
2.751364e-02 -2.527836e-16 0.000000e+00
-1.488339e-03 5.194993e-15 0.000000e+00
-3.545308e-02 -1.516880e-14 0.000000e+00
-5.868183e-02 3.676117e-15 0.000000e+00
-8.263663e-02 -5.748964e-15 0.000000e+00
-9.822931e-02 9.311168e-15 0.000000e+00
-1.116451e-01 -7.249578e-15 0.000000e+00
-1.193405e-01 -2.568265e-16 0.000000e+00
-1.233074e-01 -7.393704e-15 0.000000e+00
-1.237945e-01 3.551811e-15 0.000000e+00
-1.202618e-01 1.968357e-15 0.000000e+00
-1.149238e-01 -4.084714e-15 0.000000e+00
-1.059779e-01 1.690255e-15 0.000000e+00
-9.666195e-02 1.312856e-14 0.000000e+00
-8.419714e-02 -2.000925e-14 0.000000e+00
-7.263832e-02 5.605767e-15 0.000000e+00
-5.857358e-02 -1.352581e-14 0.000000e+00
-4.607506e-02 1.712925e-14 0.000000e+00
-3.233562e-02 9.899097e-15 0.000000e+00
-2.009902e-02 -9.470002e-15 0.000000e+00
-8.190132e-03 -3.417906e-15 0.000000e+00
2.437684e-03 2.219454e-14 0.000000e+00
1.170521e-02 1.554782e-14 0.000000e+00
1.940188e-02 -1.666251e-14 0.000000e+00
2.526536e-02 -1.681746e-14 0.000000e+00
2.897051e-02 -1.871489e-14 0.000000e+00
3.136880e-02 -2.852886e-14 0.000000e+00
3.114768e-02 -7.616511e-14 0.000000e+00
2.734564e-02 4.183884e-14 0.000000e+00
1.780705e-02 -5.680819e-14 0.000000e+00
2.059996e-02 1.139523e-13 0.000000e+00
0.000000e+00 1.568951e-14 0.000000e+00
0.000000e+00 2.058509e-14 0.000000e+00
4.975191e-02 -2.114493e-14 0.000000e+00
9.911226e-02 -6.062169e-15 0.000000e+00
1.188343e-01 3.412852e-15 0.000000e+00
1.387361e-01 -2.085454e-14 0.000000e+00
1.315586e-01 -1.412856e-14 0.000000e+00
1.235289e-01 2.425974e-15 0.000000e+00
9.324125e-02 -3.974305e-15 0.000000e+00
6.717451e-02 1.372295e-14 0.000000e+00
2.751364e-02 1.206147e-15 0.000000e+00
-1.488339e-03 7.660878e-15 0.000000e+00
-3.545308e-02 -2.256658e-14 0.000000e+00
-5.868183e-02 1.926480e-14 0.000000e+00
-8.263663e-02 -1.298766e-14 0.000000e+00
-9.822931e-02 1.631214e-14 0.000000e+00
-1.116451e-01 -5.911061e-15 0.000000e+00
-1.193405e-01 -1.947212e-15 0.000000e+00
-1.233074e-01 -4.270371e-15 0.000000e+00
-1.237945e-01 5.411810e-16 0.000000e+00
-1.202618e-01 -1.161792e-15 0.000000e+00
-1.149238e-01 -1.250922e-14 0.000000e+00
-1.059779e-01 1.286545e-15 0.000000e+00
-9.666195e-02 1.195563e-14 0.000000e+00
-8.419714e-02 -2.752899e-14 0.000000e+00
-7.263832e-02 -1.029873e-14 0.000000e+00
-5.857358e-02 -6.344405e-15 0.000000e+00
-4.607506e-02 -9.493196e-15 0.000000e+00
-3.233562e-02 -2.585239e-15 0.000000e+00
-2.009902e-02 -2.076899e-14 0.000000e+00
-8.190132e-03 1.524279e-14 0.000000e+00
2.437684e-03 9.754523e-17 0.000000e+00
1.170521e-02 -2.233325e-14 0.000000e+00
1.940188e-02 2.731858e-14 0.000000e+00
2.526536e-02 3.733975e-14 0.000000e+00
2.897051e-02 -2.943572e-14 0.000000e+00
3.136880e-02 7.581993e-14 0.000000e+00
3.114768e-02 -1.028369e-13 0.000000e+00
2.734564e-02 8.445968e-14 0.000000e+00
1.780705e-02 -1.218965e-13 0.000000e+00
2.059996e-02 1.308222e-13 0.000000e+00
0.000000e+00 -7.158141e-14 0.000000e+00
0.000000e+00 1.912075e-14 0.000000e+00
4.975191e-02 1.597388e-14 0.000000e+00
9.911226e-02 1.110241e-14 0.000000e+00
1.188343e-01 -5.659484e-15 0.000000e+00
1.387361e-01 -2.278793e-14 0.000000e+00
1.315586e-01 -2.714348e-15 0.000000e+00
1.235289e-01 -1.079699e-14 0.000000e+00
9.324125e-02 -5.447384e-15 0.000000e+00
6.717451e-02 7.710556e-15 0.000000e+00
2.751364e-02 -3.234157e-15 0.000000e+00
-1.488339e-03 -6.292219e-15 0.000000e+00
-3.545308e-02 -1.656915e-14 0.000000e+00
-5.868183e-02 1.235739e-14 0.000000e+00
-8.263663e-02 -6.214093e-15 0.000000e+00
-9.822931e-02 9.925630e-15 0.000000e+00
-1.116451e-01 -6.368886e-15 0.000000e+00
-1.193405e-01 -5.403742e-15 0.000000e+00
-1.233074e-01 -4.656207e-15 0.000000e+00
-1.237945e-01 6.833268e-15 0.000000e+00
-1.202618e-01 -4.490412e-15 0.000000e+00
-1.149238e-01 -6.299472e-15 0.000000e+00
-1.059779e-01 3.057455e-15 0.000000e+00
-9.666195e-02 1.592654e-14 0.000000e+00
-8.419714e-02 -2.341050e-14 0.000000e+00
-7.263832e-02 3.174064e-15 0.000000e+00
-5.857358e-02 2.829339e-15 0.000000e+00
-4.607506e-02 7.192769e-15 0.000000e+00
-3.233562e-02 1.751041e-14 0.000000e+00
-2.009902e-02 1.318910e-14 0.000000e+00
-8.190132e-03 -2.612218e-15 0.000000e+00
2.437684e-03 6.375738e-15 0.000000e+00
1.170521e-02 3.743992e-14 0.000000e+00
1.940188e-02 9.712612e-15 0.000000e+00
2.526536e-02 7.137887e-15 0.000000e+00
2.897051e-02 -6.812691e-16 0.000000e+00
3.136880e-02 1.690929e-14 0.000000e+00
3.114768e-02 -6.438762e-14 0.000000e+00
2.734564e-02 4.421397e-14 0.000000e+00
1.780705e-02 -1.367630e-14 0.000000e+00
2.059996e-02 6.575331e-14 0.000000e+00
0.000000e+00 3.897573e-14 0.000000e+00
0.000000e+00 -1.794088e-14 0.000000e+00
4.975191e-02 -1.468754e-14 0.000000e+00
9.911226e-02 -2.516498e-14 0.000000e+00
1.188343e-01 4.685123e-15 0.000000e+00
1.387361e-01 -2.273146e-14 0.000000e+00
1.315586e-01 -6.186037e-15 0.000000e+00
1.235289e-01 -1.754346e-14 0.000000e+00
9.324125e-02 7.473299e-15 0.000000e+00
6.717451e-02 -1.490082e-14 0.000000e+00
2.751364e-02 1.082875e-15 0.000000e+00
-1.488339e-03 1.627315e-15 0.000000e+00
-3.545308e-02 -7.789393e-15 0.000000e+00
-5.868183e-02 -1.535810e-16 0.000000e+00
-8.263663e-02 -6.729946e-15 0.000000e+00
-9.822931e-02 -6.017382e-15 0.000000e+00
-1.116451e-01 -3.535275e-15 0.000000e+00
-1.193405e-01 -9.706976e-15 0.000000e+00
-1.233074e-01 -1.828707e-15 0.000000e+00
-1.237945e-01 2.419173e-15 0.000000e+00
-1.202618e-01 -9.237224e-16 0.000000e+00
-1.149238e-01 -1.297637e-14 0.000000e+00
-1.059779e-01 2.895428e-15 0.000000e+00
-9.666195e-02 -1.048978e-14 0.000000e+00
-8.419714e-02 -2.778940e-14 0.000000e+00
-7.263832e-02 -4.885689e-15 0.000000e+00
-5.857358e-02 -1.425906e-14 0.000000e+00
-4.607506e-02 -1.446778e-14 0.000000e+00
-3.233562e-02 -1.518553e-14 0.000000e+00
-2.009902e-02 -1.751010e-14 0.000000e+00
-8.190132e-03 -3.660293e-14 0.000000e+00
2.437684e-03 1.325490e-14 0.000000e+00
1.170521e-02 -2.985640e-14 0.000000e+00
1.940188e-02 1.232734e-14 0.000000e+00
2.526536e-02 1.420904e-15 0.000000e+00
2.897051e-02 -1.605525e-14 0.000000e+00
3.136880e-02 5.152811e-14 0.000000e+00
3.114768e-02 -1.426391e-13 0.000000e+00
2.734564e-02 1.549594e-13 0.000000e+00
1.780705e-02 -2.313529e-13 0.000000e+00
2.059996e-02 9.553406e-14 0.000000e+00
0.000000e+00 -6.393335e-14 0.000000e+00
0.000000e+00 0.000000e+00 0.000000e+00
4.975191e-02 0.000000e+00 0.000000e+00
9.911226e-02 0.000000e+00 0.000000e+00
1.188343e-01 0.000000e+00 0.000000e+00
1.387361e-01 0.000000e+00 0.000000e+00
1.315586e-01 0.000000e+00 0.000000e+00
1.235289e-01 0.000000e+00 0.000000e+00
9.324125e-02 0.000000e+00 0.000000e+00
6.717451e-02 0.000000e+00 0.000000e+00
2.751364e-02 0.000000e+00 0.000000e+00
-1.488339e-03 0.000000e+00 0.000000e+00
-3.545308e-02 0.000000e+00 0.000000e+00
-5.868183e-02 0.000000e+00 0.000000e+00
-8.263663e-02 0.000000e+00 0.000000e+00
-9.822931e-02 0.000000e+00 0.000000e+00
-1.116451e-01 0.000000e+00 0.000000e+00
-1.193405e-01 0.000000e+00 0.000000e+00
-1.233074e-01 0.000000e+00 0.000000e+00
-1.237945e-01 0.000000e+00 0.000000e+00
-1.202618e-01 0.000000e+00 0.000000e+00
-1.149238e-01 0.000000e+00 0.000000e+00
-1.059779e-01 0.000000e+00 0.000000e+00
-9.666195e-02 0.000000e+00 0.000000e+00
-8.419714e-02 0.000000e+00 0.000000e+00
-7.263832e-02 0.000000e+00 0.000000e+00
-5.857358e-02 0.000000e+00 0.000000e+00
-4.607506e-02 0.000000e+00 0.000000e+00
-3.233562e-02 0.000000e+00 0.000000e+00
-2.009902e-02 0.000000e+00 0.000000e+00
-8.190132e-03 0.000000e+00 0.000000e+00
2.437684e-03 0.000000e+00 0.000000e+00
1.170521e-02 0.000000e+00 0.000000e+00
1.940188e-02 0.000000e+00 0.000000e+00
2.526536e-02 0.000000e+00 0.000000e+00
2.897051e-02 0.000000e+00 0.000000e+00
3.136880e-02 0.000000e+00 0.000000e+00
3.114768e-02 0.000000e+00 0.000000e+00
2.734564e-02 0.000000e+00 0.000000e+00
1.780705e-02 0.000000e+00 0.000000e+00
2.059996e-02 0.000000e+00 0.000000e+00
0.000000e+00 0.000000e+00 0.000000e+00
0.000000e+00 0.000000e+00 -3.766615e-02
2.013339e-02 0.000000e+00 -5.086249e-02
6.147387e-02 0.000000e+00 -3.349338e-02
7.359477e-02 0.000000e+00 -2.028903e-02
8.969495e-02 0.000000e+00 -7.486156e-03
7.804487e-02 0.000000e+00 6.535857e-03
7.069772e-02 0.000000e+00 1.640746e-02
4.320196e-02 0.000000e+00 2.536748e-02
2.301856e-02 0.000000e+00 2.841270e-02
-9.325202e-03 0.000000e+00 3.096607e-02
-3.297322e-02 0.000000e+00 2.699598e-02
-6.237272e-02 0.000000e+00 2.592142e-02
-8.315166e-02 0.000000e+00 1.975494e-02
-1.047637e-01 0.000000e+00 1.751600e-02
-1.192509e-01 0.000000e+00 1.110999e-02
-1.316729e-01 0.000000e+00 8.455423e-03
-1.392097e-01 0.000000e+00 2.922077e-03
-1.433397e-01 0.000000e+00 2.422509e-04
-1.446100e-01 0.000000e+00 -3.923661e-03
-1.422771e-01 0.000000e+00 -6.296454e-03
-1.383653e-01 0.000000e+00 -9.222114e-03
-1.312732e-01 0.000000e+00 -1.092753e-02
-1.234136e-01 0.000000e+00 -1.289162e-02
-1.128623e-01 0.000000e+00 -1.395462e-02
-1.022239e-01 0.000000e+00 -1.487724e-02
-8.943465e-02 0.000000e+00 -1.562651e-02
-7.691578e-02 0.000000e+00 -1.540935e-02
-6.317998e-02 0.000000e+00 -1.584112e-02
-4.965954e-02 0.000000e+00 -1.481020e-02
-3.619718e-02 0.000000e+00 -1.456142e-02
-2.285350e-02 0.000000e+00 -1.322991e-02
-1.078985e-02 0.000000e+00 -1.211302e-02
9.727881e-04 0.000000e+00 -1.052334e-02
1.041371e-02 0.000000e+00 -8.571143e-03
1.891743e-02 0.000000e+00 -6.786795e-03
2.403008e-02 0.000000e+00 -4.628651e-03
2.752971e-02 0.000000e+00 -2.254890e-03
2.684893e-02 0.000000e+00 4.269731e-03
2.415000e-02 0.000000e+00 5.624392e-04
1.316625e-02 0.000000e+00 5.980069e-03
0.000000e+00 0.000000e+00 2.050396e-02
0.000000e+00 1.424430e-14 -3.766615e-02
2.013339e-02 5.258349e-15 -5.086249e-02
6.147387e-02 3.666032e-15 -3.349338e-02
7.359477e-02 5.429599e-15 -2.028903e-02
8.969495e-02 -6.013738e-15 -7.486156e-03
7.804487e-02 1.282790e-14 6.535857e-03
7.069772e-02 -1.166206e-14 1.640746e-02
4.320196e-02 3.922654e-15 2.536748e-02
2.301856e-02 -1.001295e-14 2.841270e-02
-9.325202e-03 7.462455e-15 3.096607e-02
-3.297322e-02 -9.307968e-15 2.699598e-02
-6.237272e-02 1.017750e-14 2.592142e-02
-8.315166e-02 1.724176e-15 1.975494e-02
-1.047637e-01 -7.805237e-15 1.751600e-02
-1.192509e-01 6.420900e-15 1.110999e-02
-1.316729e-01 -3.046438e-15 8.455423e-03
-1.392097e-01 4.100808e-15 2.922077e-03
-1.433397e-01 9.208932e-16 2.422509e-04
-1.446100e-01 -4.750752e-15 -3.923661e-03
-1.422771e-01 2.888614e-15 -6.296454e-03
-1.383653e-01 2.896247e-15 -9.222114e-03
-1.312732e-01 -1.242781e-14 -1.092753e-02
-1.234136e-01 -3.682591e-15 -1.289162e-02
-1.128623e-01 5.076052e-16 -1.395462e-02
-1.022239e-01 6.142443e-15 -1.487724e-02
-8.943465e-02 -1.436214e-14 -1.562651e-02
-7.691578e-02 5.259378e-15 -1.540935e-02
-6.317998e-02 -8.447056e-15 -1.584112e-02
-4.965954e-02 8.359388e-15 -1.481020e-02
-3.619718e-02 7.340743e-15 -1.456142e-02
-2.285350e-02 5.013274e-15 -1.322991e-02
-1.078985e-02 -9.972846e-15 -1.211302e-02
9.727881e-04 2.089086e-14 -1.052334e-02
1.041371e-02 1.274638e-14 -8.571143e-03
1.891743e-02 -5.261198e-15 -6.786795e-03
2.403008e-02 -7.065580e-15 -4.628651e-03
2.752971e-02 5.090721e-14 -2.254890e-03
2.684893e-02 -8.976892e-15 4.269731e-03
2.415000e-02 -8.643438e-14 5.624392e-04
1.316625e-02 1.186490e-13 5.980069e-03
0.000000e+00 -2.469924e-14 2.050396e-02
0.000000e+00 2.985508e-15 -3.766615e-02
2.013339e-02 -1.293009e-14 -5.086249e-02
6.147387e-02 -1.425556e-15 -3.349338e-02
7.359477e-02 1.344232e-14 -2.028903e-02
8.969495e-02 -6.841930e-15 -7.486156e-03
7.804487e-02 9.634707e-15 6.535857e-03
7.069772e-02 -2.000944e-14 1.640746e-02
4.320196e-02 -1.673477e-15 2.536748e-02
2.301856e-02 -9.008857e-15 2.841270e-02
-9.325202e-03 -1.383514e-16 3.096607e-02
-3.297322e-02 -7.523306e-15 2.699598e-02
-6.237272e-02 1.083783e-14 2.592142e-02
-8.315166e-02 4.061865e-15 1.975494e-02
-1.047637e-01 -1.533864e-14 1.751600e-02
-1.192509e-01 8.357608e-15 1.110999e-02
-1.316729e-01 -9.001433e-15 8.455423e-03
-1.392097e-01 5.111339e-15 2.922077e-03
-1.433397e-01 -2.612818e-15 2.422509e-04
-1.446100e-01 -7.043522e-15 -3.923661e-03
-1.422771e-01 1.021313e-14 -6.296454e-03
-1.383653e-01 4.762955e-15 -9.222114e-03
-1.312732e-01 -9.849235e-15 -1.092753e-02
-1.234136e-01 -3.825381e-15 -1.289162e-02
-1.128623e-01 8.764447e-15 -1.395462e-02
-1.022239e-01 1.726539e-14 -1.487724e-02
-8.943465e-02 -1.725302e-14 -1.562651e-02
-7.691578e-02 1.903822e-14 -1.540935e-02
-6.317998e-02 -1.135447e-14 -1.584112e-02
-4.965954e-02 1.449656e-14 -1.481020e-02
-3.619718e-02 5.124086e-15 -1.456142e-02
-2.285350e-02 1.090377e-15 -1.322991e-02
-1.078985e-02 -2.461716e-14 -1.211302e-02
9.727881e-04 1.696901e-14 -1.052334e-02
1.041371e-02 -2.063725e-14 -8.571143e-03
1.891743e-02 -1.444435e-14 -6.786795e-03
2.403008e-02 -1.801888e-14 -4.628651e-03
2.752971e-02 -1.529031e-14 -2.254890e-03
2.684893e-02 -1.169532e-14 4.269731e-03
2.415000e-02 -7.680365e-14 5.624392e-04
1.316625e-02 2.564806e-14 5.980069e-03
0.000000e+00 -5.587355e-14 2.050396e-02
0.000000e+00 1.067756e-14 -3.766615e-02
2.013339e-02 -6.488319e-15 -5.086249e-02
6.147387e-02 1.347637e-14 -3.349338e-02
7.359477e-02 -3.592193e-15 -2.028903e-02
8.969495e-02 -9.594755e-16 -7.486156e-03
7.804487e-02 9.976861e-15 6.535857e-03
7.069772e-02 -1.647303e-14 1.640746e-02
4.320196e-02 4.966420e-15 2.536748e-02
2.301856e-02 -5.987892e-15 2.841270e-02
-9.325202e-03 -7.215449e-15 3.096607e-02
-3.297322e-02 -3.506334e-15 2.699598e-02
-6.237272e-02 5.561880e-15 2.592142e-02
-8.315166e-02 4.823851e-15 1.975494e-02
-1.047637e-01 -1.897795e-14 1.751600e-02
-1.192509e-01 1.375073e-14 1.110999e-02
-1.316729e-01 -1.344911e-14 8.455423e-03
-1.392097e-01 7.666104e-15 2.922077e-03
-1.433397e-01 2.774900e-15 2.422509e-04
-1.446100e-01 -9.735558e-15 -3.923661e-03
-1.422771e-01 1.429003e-14 -6.296454e-03
-1.383653e-01 -3.021144e-16 -9.222114e-03
-1.312732e-01 -1.063820e-14 -1.092753e-02
-1.234136e-01 -8.713263e-15 -1.289162e-02
-1.128623e-01 -3.797478e-15 -1.395462e-02
-1.022239e-01 1.639350e-14 -1.487724e-02
-8.943465e-02 -2.234896e-14 -1.562651e-02
-7.691578e-02 5.363503e-15 -1.540935e-02
-6.317998e-02 -8.731304e-15 -1.584112e-02
-4.965954e-02 9.842086e-15 -1.481020e-02
-3.619718e-02 -8.272812e-15 -1.456142e-02
-2.285350e-02 6.936443e-15 -1.322991e-02
-1.078985e-02 3.342335e-15 -1.211302e-02
9.727881e-04 1.277157e-14 -1.052334e-02
1.041371e-02 9.915585e-16 -8.571143e-03
1.891743e-02 1.235630e-14 -6.786795e-03
2.403008e-02 -8.164022e-15 -4.628651e-03
2.752971e-02 2.528185e-14 -2.254890e-03
2.684893e-02 9.509777e-15 4.269731e-03
2.415000e-02 -7.813758e-14 5.624392e-04
1.316625e-02 1.121095e-13 5.980069e-03
0.000000e+00 -7.276873e-14 2.050396e-02
0.000000e+00 1.878976e-14 -3.766615e-02
2.013339e-02 -5.435367e-16 -5.086249e-02
6.147387e-02 3.638277e-16 -3.349338e-02
7.359477e-02 -2.583496e-15 -2.028903e-02
8.969495e-02 1.200990e-14 -7.486156e-03
7.804487e-02 -2.054847e-15 6.535857e-03
7.069772e-02 -1.463470e-14 1.640746e-02
4.320196e-02 -9.813023e-16 2.536748e-02
2.301856e-02 -9.084702e-15 2.841270e-02
-9.325202e-03 -2.542824e-15 3.096607e-02
-3.297322e-02 -1.736705e-15 2.699598e-02
-6.237272e-02 3.980830e-15 2.592142e-02
-8.315166e-02 -5.749139e-16 1.975494e-02
-1.047637e-01 -1.224222e-14 1.751600e-02
-1.192509e-01 1.029113e-14 1.110999e-02
-1.316729e-01 -1.425939e-14 8.455423e-03
-1.392097e-01 8.025905e-15 2.922077e-03
-1.433397e-01 1.185161e-15 2.422509e-04
-1.446100e-01 -1.076082e-14 -3.923661e-03
-1.422771e-01 7.333695e-15 -6.296454e-03
-1.383653e-01 3.585802e-15 -9.222114e-03
-1.312732e-01 -9.755623e-15 -1.092753e-02
-1.234136e-01 -3.671383e-15 -1.289162e-02
-1.128623e-01 4.799305e-15 -1.395462e-02
-1.022239e-01 1.866681e-14 -1.487724e-02
-8.943465e-02 -8.544903e-15 -1.562651e-02
-7.691578e-02 1.516206e-14 -1.540935e-02
-6.317998e-02 -7.402071e-15 -1.584112e-02
-4.965954e-02 1.735360e-14 -1.481020e-02
-3.619718e-02 1.736804e-16 -1.456142e-02
-2.285350e-02 2.005034e-14 -1.322991e-02
-1.078985e-02 -7.580881e-15 -1.211302e-02
9.727881e-04 1.736501e-14 -1.052334e-02
1.041371e-02 -7.231388e-15 -8.571143e-03
1.891743e-02 -7.506369e-15 -6.786795e-03
2.403008e-02 -4.016721e-14 -4.628651e-03
2.752971e-02 -1.999684e-14 -2.254890e-03
2.684893e-02 -1.011325e-14 4.269731e-03
2.415000e-02 -7.622040e-14 5.624392e-04
1.316625e-02 6.139079e-14 5.980069e-03
0.000000e+00 -7.871937e-14 2.050396e-02
0.000000e+00 -1.081486e-14 -3.766615e-02
2.013339e-02 -3.786805e-14 -5.086249e-02
6.147387e-02 1.164550e-14 -3.349338e-02
7.359477e-02 -2.175560e-14 -2.028903e-02