# vtk DataFile Version 3.0
vtk output
ASCII
DATASET UNSTRUCTURED_GRID
POINTS 11767 float
0.000000e+00 0.000000e+00 0.000000e+00
1.460000e-02 0.000000e+00 0.000000e+00
2.920000e-02 0.000000e+00 0.000000e+00
4.380000e-02 0.000000e+00 0.000000e+00
5.840000e-02 0.000000e+00 0.000000e+00
7.300000e-02 0.000000e+00 0.000000e+00
8.760000e-02 0.000000e+00 0.000000e+00
1.022000e-01 0.000000e+00 0.000000e+00
1.168000e-01 0.000000e+00 0.000000e+00
1.314000e-01 0.000000e+00 0.000000e+00
1.460000e-01 0.000000e+00 0.000000e+00
1.606000e-01 0.000000e+00 0.000000e+00
1.752000e-01 0.000000e+00 0.000000e+00
1.898000e-01 0.000000e+00 0.000000e+00
2.044000e-01 0.000000e+00 0.000000e+00
2.190000e-01 0.000000e+00 0.000000e+00
2.336000e-01 0.000000e+00 0.000000e+00
2.482000e-01 0.000000e+00 0.000000e+00
2.628000e-01 0.000000e+00 0.000000e+00
2.774000e-01 0.000000e+00 0.000000e+00
2.920000e-01 0.000000e+00 0.000000e+00
3.066000e-01 0.000000e+00 0.000000e+00
3.212000e-01 0.000000e+00 0.000000e+00
3.358000e-01 0.000000e+00 0.000000e+00
3.504000e-01 0.000000e+00 0.000000e+00
3.650000e-01 0.000000e+00 0.000000e+00
3.796000e-01 0.000000e+00 0.000000e+00
3.942000e-01 0.000000e+00 0.000000e+00
4.088000e-01 0.000000e+00 0.000000e+00
4.234000e-01 0.000000e+00 0.000000e+00
4.380000e-01 0.000000e+00 0.000000e+00
4.526000e-01 0.000000e+00 0.000000e+00
4.672000e-01 0.000000e+00 0.000000e+00
4.818000e-01 0.000000e+00 0.000000e+00
4.964000e-01 0.000000e+00 0.000000e+00
5.110000e-01 0.000000e+00 0.000000e+00
5.256000e-01 0.000000e+00 0.000000e+00
5.402000e-01 0.000000e+00 0.000000e+00
5.548000e-01 0.000000e+00 0.000000e+00
5.694000e-01 0.000000e+00 0.000000e+00
5.840000e-01 0.000000e+00 0.000000e+00
0.000000e+00 1.460000e-02 0.000000e+00
1.460000e-02 1.460000e-02 0.000000e+00
2.920000e-02 1.460000e-02 0.000000e+00
4.380000e-02 1.460000e-02 0.000000e+00
5.840000e-02 1.460000e-02 0.000000e+00
7.300000e-02 1.460000e-02 0.000000e+00
8.760000e-02 1.460000e-02 0.000000e+00
1.022000e-01 1.460000e-02 0.000000e+00
1.168000e-01 1.460000e-02 0.000000e+00
1.314000e-01 1.460000e-02 0.000000e+00
1.460000e-01 1.460000e-02 0.000000e+00
1.606000e-01 1.460000e-02 0.000000e+00
1.752000e-01 1.460000e-02 0.000000e+00
1.898000e-01 1.460000e-02 0.000000e+00
2.044000e-01 1.460000e-02 0.000000e+00
2.190000e-01 1.460000e-02 0.000000e+00
2.336000e-01 1.460000e-02 0.000000e+00
2.482000e-01 1.460000e-02 0.000000e+00
2.628000e-01 1.460000e-02 0.000000e+00
2.774000e-01 1.460000e-02 0.000000e+00
2.920000e-01 1.460000e-02 0.000000e+00
3.066000e-01 1.460000e-02 0.000000e+00
3.212000e-01 1.460000e-02 0.000000e+00
3.358000e-01 1.460000e-02 0.000000e+00
3.504000e-01 1.460000e-02 0.000000e+00
3.650000e-01 1.460000e-02 0.000000e+00
3.796000e-01 1.460000e-02 0.000000e+00
3.942000e-01 1.460000e-02 0.000000e+00
4.088000e-01 1.460000e-02 0.000000e+00
4.234000e-01 1.460000e-02 0.000000e+00
4.380000e-01 1.460000e-02 0.000000e+00
4.526000e-01 1.460000e-02 0.000000e+00
4.672000e-01 1.460000e-02 0.000000e+00
4.818000e-01 1.460000e-02 0.000000e+00
4.964000e-01 1.460000e-02 0.000000e+00
5.110000e-01 1.460000e-02 0.000000e+00
5.256000e-01 1.460000e-02 0.000000e+00
5.402000e-01 1.460000e-02 0.000000e+00
5.548000e-01 1.460000e-02 0.000000e+00
5.694000e-01 1.460000e-02 0.000000e+00
5.840000e-01 1.460000e-02 0.000000e+00
0.000000e+00 2.920000e-02 0.000000e+00
1.460000e-02 2.920000e-02 0.000000e+00
2.920000e-02 2.920000e-02 0.000000e+00
4.380000e-02 2.920000e-02 0.000000e+00
5.840000e-02 2.920000e-02 0.000000e+00
7.300000e-02 2.920000e-02 0.000000e+00
8.760000e-02 2.920000e-02 0.000000e+00
1.022000e-01 2.920000e-02 0.000000e+00
1.168000e-01 2.920000e-02 0.000000e+00
1.314000e-01 2.920000e-02 0.000000e+00
1.460000e-01 2.920000e-02 0.000000e+00
1.606000e-01 2.920000e-02 0.000000e+00
1.752000e-01 2.920000e-02 0.000000e+00
1.898000e-01 2.920000e-02 0.000000e+00
2.044000e-01 2.920000e-02 0.000000e+00
2.190000e-01 2.920000e-02 0.000000e+00
2.336000e-01 2.920000e-02 0.000000e+00
2.482000e-01 2.920000e-02 0.000000e+00
2.628000e-01 2.920000e-02 0.000000e+00
2.774000e-01 2.920000e-02 0.000000e+00
2.920000e-01 2.920000e-02 0.000000e+00
3.066000e-01 2.920000e-02 0.000000e+00
3.212000e-01 2.920000e-02 0.000000e+00
3.358000e-01 2.920000e-02 0.000000e+00
3.504000e-01 2.920000e-02 0.000000e+00
3.650000e-01 2.920000e-02 0.000000e+00
3.796000e-01 2.920000e-02 0.000000e+00
3.942000e-01 2.920000e-02 0.000000e+00
4.088000e-01 2.920000e-02 0.000000e+00
4.234000e-01 2.920000e-02 0.000000e+00
4.380000e-01 2.920000e-02 0.000000e+00
4.526000e-01 2.920000e-02 0.000000e+00
4.672000e-01 2.920000e-02 0.000000e+00
4.818000e-01 2.920000e-02 0.000000e+00
4.964000e-01 2.920000e-02 0.000000e+00
5.110000e-01 2.920000e-02 0.000000e+00
5.256000e-01 2.920000e-02 0.000000e+00
5.402000e-01 2.920000e-02 0.000000e+00
5.548000e-01 2.920000e-02 0.000000e+00
5.694000e-01 2.920000e-02 0.000000e+00
5.840000e-01 2.920000e-02 0.000000e+00
0.000000e+00 4.380000e-02 0.000000e+00
1.460000e-02 4.380000e-02 0.000000e+00
2.920000e-02 4.380000e-02 0.000000e+00
4.380000e-02 4.380000e-02 0.000000e+00
5.840000e-02 4.380000e-02 0.000000e+00
7.300000e-02 4.380000e-02 0.000000e+00
8.760000e-02 4.380000e-02 0.000000e+00
1.022000e-01 4.380000e-02 0.000000e+00
1.168000e-01 4.380000e-02 0.000000e+00
1.314000e-01 4.380000e-02 0.000000e+00
1.460000e-01 4.380000e-02 0.000000e+00
1.606000e-01 4.380000e-02 0.000000e+00
1.752000e-01 4.380000e-02 0.000000e+00
1.898000e-01 4.380000e-02 0.000000e+00
2.044000e-01 4.380000e-02 0.000000e+00
2.190000e-01 4.380000e-02 0.000000e+00
2.336000e-01 4.380000e-02 0.000000e+00
2.482000e-01 4.380000e-02 0.000000e+00
2.628000e-01 4.380000e-02 0.000000e+00
2.774000e-01 4.380000e-02 0.000000e+00
2.920000e-01 4.380000e-02 0.000000e+00
3.066000e-01 4.380000e-02 0.000000e+00
3.212000e-01 4.380000e-02 0.000000e+00
3.358000e-01 4.380000e-02 0.000000e+00
3.504000e-01 4.380000e-02 0.000000e+00
3.650000e-01 4.380000e-02 0.000000e+00
3.796000e-01 4.380000e-02 0.000000e+00
3.942000e-01 4.380000e-02 0.000000e+00
4.088000e-01 4.380000e-02 0.000000e+00
4.234000e-01 4.380000e-02 0.000000e+00
4.380000e-01 4.380000e-02 0.000000e+00
4.526000e-01 4.380000e-02 0.000000e+00
4.672000e-01 4.380000e-02 0.000000e+00
4.818000e-01 4.380000e-02 0.000000e+00
4.964000e-01 4.380000e-02 0.000000e+00
5.110000e-01 4.380000e-02 0.000000e+00
5.256000e-01 4.380000e-02 0.000000e+00
5.402000e-01 4.380000e-02 0.000000e+00
5.548000e-01 4.380000e-02 0.000000e+00
5.694000e-01 4.380000e-02 0.000000e+00
5.840000e-01 4.380000e-02 0.000000e+00
0.000000e+00 5.840000e-02 0.000000e+00
1.460000e-02 5.840000e-02 0.000000e+00
2.920000e-02 5.840000e-02 0.000000e+00
4.380000e-02 5.840000e-02 0.000000e+00
5.840000e-02 5.840000e-02 0.000000e+00
7.300000e-02 5.840000e-02 0.000000e+00
8.760000e-02 5.840000e-02 0.000000e+00
1.022000e-01 5.840000e-02 0.000000e+00
1.168000e-01 5.840000e-02 0.000000e+00
1.314000e-01 5.840000e-02 0.000000e+00
1.460000e-01 5.840000e-02 0.000000e+00
1.606000e-01 5.840000e-02 0.000000e+00
1.752000e-01 5.840000e-02 0.000000e+00
1.898000e-01 5.840000e-02 0.000000e+00
2.044000e-01 5.840000e-02 0.000000e+00
2.190000e-01 5.840000e-02 0.000000e+00
2.336000e-01 5.840000e-02 0.000000e+00
2.482000e-01 5.840000e-02 0.000000e+00
2.628000e-01 5.840000e-02 0.000000e+00
2.774000e-01 5.840000e-02 0.000000e+00
2.920000e-01 5.840000e-02 0.000000e+00
3.066000e-01 5.840000e-02 0.000000e+00
3.212000e-01 5.840000e-02 0.000000e+00
3.358000e-01 5.840000e-02 0.000000e+00
3.504000e-01 5.840000e-02 0.000000e+00
3.650000e-01 5.840000e-02 0.000000e+00
3.796000e-01 5.840000e-02 0.000000e+00
3.942000e-01 5.840000e-02 0.000000e+00
4.088000e-01 5.840000e-02 0.000000e+00
4.234000e-01 5.840000e-02 0.000000e+00
4.380000e-01 5.840000e-02 0.000000e+00
4.526000e-01 5.840000e-02 0.000000e+00
4.672000e-01 5.840000e-02 0.000000e+00
4.818000e-01 5.840000e-02 0.000000e+00
4.964000e-01 5.840000e-02 0.000000e+00
5.110000e-01 5.840000e-02 0.000000e+00
5.256000e-01 5.840000e-02 0.000000e+00
5.402000e-01 5.840000e-02 0.000000e+00
5.548000e-01 5.840000e-02 0.000000e+00
5.694000e-01 5.840000e-02 0.000000e+00
5.840000e-01 5.840000e-02 0.000000e+00
0.000000e+00 7.300000e-02 0.000000e+00
1.460000e-02 7.300000e-02 0.000000e+00
2.920000e-02 7.300000e-02 0.000000e+00
4.380000e-02 7.300000e-02 0.000000e+00
5.840000e-02 7.300000e-02 0.000000e+00
7.300000e-02 7.300000e-02 0.000000e+00
8.760000e-02 7.300000e-02 0.000000e+00
1.022000e-01 7.300000e-02 0.000000e+00
1.168000e-01 7.300000e-02 0.000000e+00
1.314000e-01 7.300000e-02 0.000000e+00
1.460000e-01 7.300000e-02 0.000000e+00
1.606000e-01 7.300000e-02 0.000000e+00
1.752000e-01 7.300000e-02 0.000000e+00
1.898000e-01 7.300000e-02 0.000000e+00
2.044000e-01 7.300000e-02 0.000000e+00
2.190000e-01 7.300000e-02 0.000000e+00
2.336000e-01 7.300000e-02 0.000000e+00
2.482000e-01 7.300000e-02 0.000000e+00
2.628000e-01 7.300000e-02 0.000000e+00
2.774000e-01 7.300000e-02 0.000000e+00
2.920000e-01 7.300000e-02 0.000000e+00
3.066000e-01 7.300000e-02 0.000000e+00
3.212000e-01 7.300000e-02 0.000000e+00
3.358000e-01 7.300000e-02 0.000000e+00
3.504000e-01 7.300000e-02 0.000000e+00
3.650000e-01 7.300000e-02 0.000000e+00
3.796000e-01 7.300000e-02 0.000000e+00
3.942000e-01 7.300000e-02 0.000000e+00
4.088000e-01 7.300000e-02 0.000000e+00
4.234000e-01 7.300000e-02 0.000000e+00
4.380000e-01 7.300000e-02 0.000000e+00
4.526000e-01 7.300000e-02 0.000000e+00
4.672000e-01 7.300000e-02 0.000000e+00
4.818000e-01 7.300000e-02 0.000000e+00
4.964000e-01 7.300000e-02 0.000000e+00
5.110000e-01 7.300000e-02 0.000000e+00
5.256000e-01 7.300000e-02 0.000000e+00
5.402000e-01 7.300000e-02 0.000000e+00
5.548000e-01 7.300000e-02 0.000000e+00
5.694000e-01 7.300000e-02 0.000000e+00
5.840000e-01 7.300000e-02 0.000000e+00
0.000000e+00 8.760000e-02 0.000000e+00
1.460000e-02 8.760000e-02 0.000000e+00
2.920000e-02 8.760000e-02 0.000000e+00
4.380000e-02 8.760000e-02 0.000000e+00
5.840000e-02 8.760000e-02 0.000000e+00
7.300000e-02 8.760000e-02 0.000000e+00
8.760000e-02 8.760000e-02 0.000000e+00
1.022000e-01 8.760000e-02 0.000000e+00
[...]
POINT_DATA 11767
VECTORS Velocity float
0.000000e+00 0.000000e+00 0.000000e+00
2.797042e-02 0.000000e+00 0.000000e+00
4.739260e-02 0.000000e+00 0.000000e+00
6.290054e-02 0.000000e+00 0.000000e+00
7.548810e-02 0.000000e+00 0.000000e+00
8.647473e-02 0.000000e+00 0.000000e+00
9.598142e-02 0.000000e+00 0.000000e+00
1.043587e-01 0.000000e+00 0.000000e+00
1.117547e-01 0.000000e+00 0.000000e+00
1.185609e-01 0.000000e+00 0.000000e+00
1.251245e-01 0.000000e+00 0.000000e+00
1.317134e-01 0.000000e+00 0.000000e+00
1.384225e-01 0.000000e+00 0.000000e+00
1.452704e-01 0.000000e+00 0.000000e+00
1.521872e-01 0.000000e+00 0.000000e+00
1.589893e-01 0.000000e+00 0.000000e+00
1.653450e-01 0.000000e+00 0.000000e+00
1.707251e-01 0.000000e+00 0.000000e+00
1.745103e-01 0.000000e+00 0.000000e+00
1.760618e-01 0.000000e+00 0.000000e+00
1.750914e-01 0.000000e+00 0.000000e+00
1.718234e-01 0.000000e+00 0.000000e+00
1.667299e-01 0.000000e+00 0.000000e+00
1.604413e-01 0.000000e+00 0.000000e+00
1.536560e-01 0.000000e+00 0.000000e+00
1.470960e-01 0.000000e+00 0.000000e+00
1.413588e-01 0.000000e+00 0.000000e+00
1.367823e-01 0.000000e+00 0.000000e+00
1.333650e-01 0.000000e+00 0.000000e+00
1.307796e-01 0.000000e+00 0.000000e+00
1.286132e-01 0.000000e+00 0.000000e+00
1.263250e-01 0.000000e+00 0.000000e+00
1.236037e-01 0.000000e+00 0.000000e+00
1.198185e-01 0.000000e+00 0.000000e+00
1.147432e-01 0.000000e+00 0.000000e+00
1.079525e-01 0.000000e+00 0.000000e+00
9.856771e-02 0.000000e+00 0.000000e+00
8.753979e-02 0.000000e+00 0.000000e+00
6.976634e-02 0.000000e+00 0.000000e+00
4.973616e-02 0.000000e+00 0.000000e+00
0.000000e+00 0.000000e+00 0.000000e+00
0.000000e+00 -3.249116e-14 0.000000e+00
2.797042e-02 -1.455543e-14 0.000000e+00
4.739260e-02 -6.276477e-15 0.000000e+00
6.290054e-02 -1.626857e-14 0.000000e+00
7.548810e-02 5.136558e-15 0.000000e+00
8.647473e-02 -3.298940e-15 0.000000e+00
9.598142e-02 -6.081834e-15 0.000000e+00
1.043587e-01 5.062919e-16 0.000000e+00
1.117547e-01 8.476741e-16 0.000000e+00
1.185609e-01 -4.354791e-15 0.000000e+00
1.251245e-01 2.854919e-15 0.000000e+00
1.317134e-01 -2.292966e-15 0.000000e+00
1.384225e-01 -1.482021e-15 0.000000e+00
1.452704e-01 -9.815353e-15 0.000000e+00
1.521872e-01 -1.457594e-14 0.000000e+00
1.589893e-01 -6.907597e-15 0.000000e+00
1.653450e-01 -2.053894e-14 0.000000e+00
1.707251e-01 -8.394963e-15 0.000000e+00
1.745103e-01 -9.408136e-15 0.000000e+00
1.760618e-01 -5.008006e-15 0.000000e+00
1.750914e-01 1.133559e-14 0.000000e+00
1.718234e-01 3.252932e-14 0.000000e+00
1.667299e-01 5.193796e-14 0.000000e+00
1.604413e-01 8.906740e-14 0.000000e+00
1.536560e-01 1.035721e-13 0.000000e+00
1.470960e-01 1.535717e-13 0.000000e+00
1.413588e-01 1.396562e-13 0.000000e+00
1.367823e-01 1.591757e-13 0.000000e+00
1.333650e-01 1.293063e-13 0.000000e+00
1.307796e-01 1.064808e-13 0.000000e+00
1.286132e-01 5.371165e-14 0.000000e+00
1.263250e-01 6.206652e-14 0.000000e+00
1.236037e-01 -1.160813e-14 0.000000e+00
1.198185e-01 4.871967e-14 0.000000e+00
1.147432e-01 -2.240879e-14 0.000000e+00
1.079525e-01 2.094041e-14 0.000000e+00
9.856771e-02 -4.985870e-14 0.000000e+00
8.753979e-02 3.211510e-14 0.000000e+00
6.976634e-02 -5.984109e-14 0.000000e+00
4.973616e-02 4.236130e-14 0.000000e+00
0.000000e+00 -3.006569e-14 0.000000e+00
0.000000e+00 -9.284836e-14 0.000000e+00
2.797042e-02 -2.569579e-14 0.000000e+00
4.739260e-02 -2.519530e-14 0.000000e+00
6.290054e-02 -3.710359e-14 0.000000e+00
7.548810e-02 2.381458e-14 0.000000e+00
8.647473e-02 -3.017426e-15 0.000000e+00
9.598142e-02 1.829496e-15 0.000000e+00
1.043587e-01 -4.214429e-15 0.000000e+00
1.117547e-01 8.095879e-15 0.000000e+00
1.185609e-01 -1.511071e-14 0.000000e+00
1.251245e-01 4.619605e-15 0.000000e+00
1.317134e-01 -4.825839e-15 0.000000e+00
1.384225e-01 -3.166050e-15 0.000000e+00
1.452704e-01 -1.451436e-14 0.000000e+00
1.521872e-01 -1.306425e-14 0.000000e+00
1.589893e-01 -9.723322e-15 0.000000e+00
1.653450e-01 -2.047216e-14 0.000000e+00
1.707251e-01 -1.010140e-14 0.000000e+00
1.745103e-01 -2.638206e-15 0.000000e+00
1.760618e-01 3.573500e-15 0.000000e+00
1.750914e-01 3.939466e-14 0.000000e+00
1.718234e-01 6.474699e-14 0.000000e+00
1.667299e-01 1.002520e-13 0.000000e+00
1.604413e-01 1.459381e-13 0.000000e+00
1.536560e-01 1.488031e-13 0.000000e+00
1.470960e-01 2.056599e-13 0.000000e+00
1.413588e-01 1.812680e-13 0.000000e+00
1.367823e-01 2.023786e-13 0.000000e+00
1.333650e-01 1.646767e-13 0.000000e+00
1.307796e-01 1.435944e-13 0.000000e+00
1.286132e-01 7.227657e-14 0.000000e+00
1.263250e-01 9.468740e-14 0.000000e+00
1.236037e-01 6.866545e-15 0.000000e+00
1.198185e-01 5.646208e-14 0.000000e+00
1.147432e-01 -5.428445e-15 0.000000e+00
1.079525e-01 -2.907397e-15 0.000000e+00
9.856771e-02 -3.635385e-14 0.000000e+00
8.753979e-02 -6.679776e-16 0.000000e+00
6.976634e-02 -1.566354e-14 0.000000e+00
4.973616e-02 4.785037e-15 0.000000e+00
0.000000e+00 -5.111329e-14 0.000000e+00
0.000000e+00 -2.395516e-14 0.000000e+00
2.797042e-02 -1.997573e-15 0.000000e+00
4.739260e-02 -3.258638e-14 0.000000e+00
6.290054e-02 -3.337110e-14 0.000000e+00
7.548810e-02 2.912841e-14 0.000000e+00
8.647473e-02 -4.138118e-15 0.000000e+00
9.598142e-02 2.448531e-15 0.000000e+00
1.043587e-01 -1.365840e-15 0.000000e+00
1.117547e-01 1.049417e-14 0.000000e+00
1.185609e-01 -1.924056e-14 0.000000e+00
1.251245e-01 4.110171e-15 0.000000e+00
1.317134e-01 -4.344886e-15 0.000000e+00
1.384225e-01 -2.091612e-15 0.000000e+00
1.452704e-01 -1.228781e-14 0.000000e+00
1.521872e-01 -1.436747e-14 0.000000e+00
1.589893e-01 -5.388136e-15 0.000000e+00
1.653450e-01 -1.825181e-14 0.000000e+00
1.707251e-01 -5.324731e-15 0.000000e+00
1.745103e-01 3.982112e-15 0.000000e+00
1.760618e-01 1.253454e-14 0.000000e+00
1.750914e-01 5.220608e-14 0.000000e+00
1.718234e-01 8.369540e-14 0.000000e+00
1.667299e-01 1.155071e-13 0.000000e+00
1.604413e-01 1.612518e-13 0.000000e+00
1.536560e-01 1.386320e-13 0.000000e+00
1.470960e-01 1.881356e-13 0.000000e+00
1.413588e-01 1.476637e-13 0.000000e+00
1.367823e-01 1.699206e-13 0.000000e+00
1.333650e-01 1.398686e-13 0.000000e+00
1.307796e-01 1.296680e-13 0.000000e+00
1.286132e-01 6.921106e-14 0.000000e+00
1.263250e-01 1.003923e-13 0.000000e+00
1.236037e-01 1.151734e-14 0.000000e+00
1.198185e-01 7.541872e-14 0.000000e+00
1.147432e-01 -7.271441e-15 0.000000e+00
1.079525e-01 2.409242e-14 0.000000e+00
9.856771e-02 -5.028547e-14 0.000000e+00
8.753979e-02 2.383475e-14 0.000000e+00
6.976634e-02 -3.560431e-14 0.000000e+00
4.973616e-02 3.402782e-14 0.000000e+00
0.000000e+00 -9.603628e-14 0.000000e+00
0.000000e+00 -3.255516e-14 0.000000e+00
2.797042e-02 -2.184954e-14 0.000000e+00
4.739260e-02 -3.586803e-14 0.000000e+00
6.290054e-02 -3.286798e-14 0.000000e+00
7.548810e-02 1.957153e-14 0.000000e+00
8.647473e-02 -1.242327e-14 0.000000e+00
9.598142e-02 -1.679466e-15 0.000000e+00
1.043587e-01 -9.189393e-15 0.000000e+00
1.117547e-01 6.635079e-15 0.000000e+00
1.185609e-01 -1.896826e-14 0.000000e+00
1.251245e-01 8.204961e-15 0.000000e+00
1.317134e-01 -6.911646e-15 0.000000e+00
1.384225e-01 1.621604e-16 0.000000e+00
1.452704e-01 -1.659328e-14 0.000000e+00
1.521872e-01 -1.195897e-14 0.000000e+00
1.589893e-01 -7.514737e-15 0.000000e+00
1.653450e-01 -1.617316e-14 0.000000e+00
1.707251e-01 -8.637201e-15 0.000000e+00
1.745103e-01 3.153802e-15 0.000000e+00
1.760618e-01 4.704985e-15 0.000000e+00
1.750914e-01 4.040704e-14 0.000000e+00
1.718234e-01 5.722484e-14 0.000000e+00
1.667299e-01 8.727126e-14 0.000000e+00
1.604413e-01 1.217427e-13 0.000000e+00
1.536560e-01 1.059317e-13 0.000000e+00
1.470960e-01 1.494528e-13 0.000000e+00
1.413588e-01 1.152085e-13 0.000000e+00
1.367823e-01 1.388249e-13 0.000000e+00
1.333650e-01 1.107582e-13 0.000000e+00
1.307796e-01 1.063307e-13 0.000000e+00
1.286132e-01 5.211395e-14 0.000000e+00
1.263250e-01 8.018658e-14 0.000000e+00
1.236037e-01 6.507940e-15 0.000000e+00
1.198185e-01 6.069322e-14 0.000000e+00
1.147432e-01 -5.131757e-15 0.000000e+00
1.079525e-01 1.591737e-14 0.000000e+00
9.856771e-02 -4.155150e-14 0.000000e+00
8.753979e-02 1.347992e-14 0.000000e+00
6.976634e-02 -1.105941e-14 0.000000e+00
4.973616e-02 -7.204375e-15 0.000000e+00
0.000000e+00 -9.654128e-14 0.000000e+00
0.000000e+00 -8.793413e-14 0.000000e+00
2.797042e-02 -5.365476e-14 0.000000e+00
4.739260e-02 -4.063802e-14 0.000000e+00
6.290054e-02 -2.549778e-14 0.000000e+00
7.548810e-02 8.241066e-16 0.000000e+00
8.647473e-02 -1.322896e-14 0.000000e+00
9.598142e-02 -1.254810e-14 0.000000e+00
1.043587e-01 -8.133241e-15 0.000000e+00
1.117547e-01 -1.369365e-17 0.000000e+00
1.185609e-01 -1.102628e-14 0.000000e+00
1.251245e-01 2.881882e-15 0.000000e+00
1.317134e-01 -6.098537e-15 0.000000e+00
1.384225e-01 -3.892461e-15 0.000000e+00
1.452704e-01 -1.590571e-14 0.000000e+00
1.521872e-01 -1.152184e-14 0.000000e+00
1.589893e-01 -8.306518e-15 0.000000e+00
1.653450e-01 -1.907459e-14 0.000000e+00
1.707251e-01 -8.189135e-15 0.000000e+00
1.745103e-01 -5.687451e-15 0.000000e+00
1.760618e-01 -3.963007e-15 0.000000e+00
1.750914e-01 9.718074e-15 0.000000e+00
1.718234e-01 2.229712e-14 0.000000e+00
1.667299e-01 3.529790e-14 0.000000e+00
1.604413e-01 5.800986e-14 0.000000e+00
1.536560e-01 5.489107e-14 0.000000e+00
1.470960e-01 9.452083e-14 0.000000e+00
1.413588e-01 6.625547e-14 0.000000e+00
1.367823e-01 9.081570e-14 0.000000e+00
1.333650e-01 6.903279e-14 0.000000e+00
1.307796e-01 6.473944e-14 0.000000e+00
1.286132e-01 2.147938e-14 0.000000e+00
1.263250e-01 4.392771e-14 0.000000e+00
1.236037e-01 -1.688289e-14 0.000000e+00
1.198185e-01 4.488180e-14 0.000000e+00
1.147432e-01 -3.063393e-14 0.000000e+00
1.079525e-01 3.064039e-14 0.000000e+00
9.856771e-02 -6.568500e-14 0.000000e+00
8.753979e-02 4.292922e-14 0.000000e+00
6.976634e-02 -6.529739e-14 0.000000e+00
4.973616e-02 4.572822e-14 0.000000e+00
0.000000e+00 1.263028e-14 0.000000e+00
0.000000e+00 0.000000e+00 0.000000e+00
2.797042e-02 0.000000e+00 0.000000e+00
4.739260e-02 0.000000e+00 0.000000e+00
6.290054e-02 0.000000e+00 0.000000e+00
7.548810e-02 0.000000e+00 0.000000e+00
8.647473e-02 0.000000e+00 0.000000e+00
9.598142e-02 0.000000e+00 0.000000e+00
1.043587e-01 0.000000e+00 0.000000e+00
1.117547e-01 0.000000e+00 0.000000e+00
1.185609e-01 0.000000e+00 0.000000e+00
1.251245e-01 0.000000e+00 0.000000e+00
1.317134e-01 0.000000e+00 0.000000e+00
1.384225e-01 0.000000e+00 0.000000e+00
1.452704e-01 0.000000e+00 0.000000e+00
1.521872e-01 0.000000e+00 0.000000e+00
1.589893e-01 0.000000e+00 0.000000e+00
1.653450e-01 0.000000e+00 0.000000e+00
1.707251e-01 0.000000e+00 0.000000e+00
1.745103e-01 0.000000e+00 0.000000e+00
1.760618e-01 0.000000e+00 0.000000e+00
1.750914e-01 0.000000e+00 0.000000e+00
1.718234e-01 0.000000e+00 0.000000e+00
1.667299e-01 0.000000e+00 0.000000e+00
1.604413e-01 0.000000e+00 0.000000e+00
1.536560e-01 0.000000e+00 0.000000e+00
1.470960e-01 0.000000e+00 0.000000e+00
1.413588e-01 0.000000e+00 0.000000e+00
1.367823e-01 0.000000e+00 0.000000e+00
1.333650e-01 0.000000e+00 0.000000e+00
1.307796e-01 0.000000e+00 0.000000e+00
1.286132e-01 0.000000e+00 0.000000e+00
1.263250e-01 0.000000e+00 0.000000e+00
1.236037e-01 0.000000e+00 0.000000e+00
1.198185e-01 0.000000e+00 0.000000e+00
1.147432e-01 0.000000e+00 0.000000e+00
1.079525e-01 0.000000e+00 0.000000e+00
9.856771e-02 0.000000e+00 0.000000e+00
8.753979e-02 0.000000e+00 0.000000e+00
6.976634e-02 0.000000e+00 0.000000e+00
4.973616e-02 0.000000e+00 0.000000e+00
0.000000e+00 0.000000e+00 0.000000e+00
0.000000e+00 0.000000e+00 -2.593615e-02
1.094639e-02 0.000000e+00 -2.236773e-02
2.381815e-02 0.000000e+00 -1.791443e-02
3.595980e-02 0.000000e+00 -1.558508e-02
4.666371e-02 0.000000e+00 -1.351117e-02
5.579278e-02 0.000000e+00 -1.208497e-02
6.354016e-02 0.000000e+00 -1.073739e-02
6.997916e-02 0.000000e+00 -9.639772e-03
7.535707e-02 0.000000e+00 -8.777261e-03
7.990406e-02 0.000000e+00 -8.286464e-03
8.395949e-02 0.000000e+00 -8.124276e-03
8.787421e-02 0.000000e+00 -8.201998e-03
9.198653e-02 0.000000e+00 -8.404113e-03
9.649523e-02 0.000000e+00 -8.628673e-03
1.014067e-01 0.000000e+00 -8.735460e-03
1.065010e-01 0.000000e+00 -8.563435e-03
1.113304e-01 0.000000e+00 -7.919197e-03
1.152940e-01 0.000000e+00 -6.664971e-03
1.177351e-01 0.000000e+00 -4.775152e-03
1.181898e-01 0.000000e+00 -2.415044e-03
1.163878e-01 0.000000e+00 2.880940e-06
1.123827e-01 0.000000e+00 2.059976e-03
1.067423e-01 0.000000e+00 3.502407e-03
1.002441e-01 0.000000e+00 4.226391e-03
9.366900e-02 0.000000e+00 4.228729e-03
8.761848e-02 0.000000e+00 3.610405e-03
8.245580e-02 0.000000e+00 2.589325e-03
7.831577e-02 0.000000e+00 1.425294e-03
7.521995e-02 0.000000e+00 4.030030e-04
7.308223e-02 0.000000e+00 -3.286433e-04
7.170051e-02 0.000000e+00 -6.013216e-04
7.062973e-02 0.000000e+00 -4.559395e-04
6.940783e-02 0.000000e+00 1.676195e-04
6.748714e-02 0.000000e+00 1.343242e-03
6.434609e-02 0.000000e+00 2.624402e-03
5.965974e-02 0.000000e+00 5.067044e-03
5.288585e-02 0.000000e+00 6.246207e-03
4.477410e-02 0.000000e+00 1.096283e-02
3.354071e-02 0.000000e+00 1.211229e-02
2.059717e-02 0.000000e+00 2.566126e-02
0.000000e+00 0.000000e+00 4.351331e-02
0.000000e+00 -1.659769e-14 -2.593615e-02
1.094639e-02 -2.347130e-14 -2.236773e-02
2.381815e-02 -1.370577e-14 -1.791443e-02
3.595980e-02 1.149306e-14 -1.558508e-02
4.666371e-02 -2.553161e-15 -1.351117e-02
5.579278e-02 6.189015e-15 -1.208497e-02
6.354016e-02 1.290724e-14 -1.073739e-02
6.997916e-02 5.470047e-16 -9.639772e-03
7.535707e-02 5.342034e-15 -8.777261e-03
7.990406e-02 -2.970545e-15 -8.286464e-03
8.395949e-02 -6.450306e-15 -8.124276e-03
8.787421e-02 -1.493803e-14 -8.201998e-03
9.198653e-02 7.383707e-15 -8.404113e-03
9.649523e-02 -2.025328e-14 -8.628673e-03
1.014067e-01 -6.639396e-15 -8.735460e-03
1.065010e-01 -5.554848e-15 -8.563435e-03
1.113304e-01 -3.338165e-14 -7.919197e-03
1.152940e-01 -1.989463e-14 -6.664971e-03
1.177351e-01 -2.854272e-14 -4.775152e-03
1.181898e-01 -2.904524e-14 -2.415044e-03
1.163878e-01 -4.112347e-14 2.880940e-06
1.123827e-01 -4.503907e-14 2.059976e-03
1.067423e-01 -6.316513e-14 3.502407e-03
1.002441e-01 -8.624003e-14 4.226391e-03
9.366900e-02 -9.614489e-14 4.228729e-03
8.761848e-02 -1.004792e-13 3.610405e-03
8.245580e-02 -1.051406e-13 2.589325e-03
7.831577e-02 -6.021667e-14 1.425294e-03
7.521995e-02 -3.833440e-14 4.030030e-04
7.308223e-02 3.066831e-14 -3.286433e-04
7.170051e-02 4.886063e-14 -6.013216e-04
7.062973e-02 8.232415e-14 -4.559395e-04
6.940783e-02 4.915230e-14 1.676195e-04
6.748714e-02 9.118498e-14 1.343242e-03
6.434609e-02 2.506247e-14 2.624402e-03
5.965974e-02 8.904901e-14 5.067044e-03
5.288585e-02 1.541596e-14 6.246207e-03
4.477410e-02 5.610479e-14 1.096283e-02
3.354071e-02 -5.348574e-14 1.211229e-02
2.059717e-02 8.495911e-14 2.566126e-02
0.000000e+00 4.925582e-15 4.351331e-02
0.000000e+00 -2.033807e-14 -2.593615e-02
1.094639e-02 -3.605897e-14 -2.236773e-02
2.381815e-02 -2.758146e-14 -1.791443e-02
3.595980e-02 6.653407e-15 -1.558508e-02
4.666371e-02 -1.882274e-14 -1.351117e-02
5.579278e-02 -7.315769e-15 -1.208497e-02
6.354016e-02 1.004524e-14 -1.073739e-02
6.997916e-02 -1.535807e-14 -9.639772e-03
7.535707e-02 5.354737e-15 -8.777261e-03
7.990406e-02 -6.440504e-15 -8.286464e-03
8.395949e-02 3.375067e-16 -8.124276e-03
8.787421e-02 -1.869259e-14 -8.201998e-03
9.198653e-02 1.791419e-14 -8.404113e-03
9.649523e-02 -3.305898e-14 -8.628673e-03
1.014067e-01 -8.259909e-15 -8.735460e-03
1.065010e-01 -1.032350e-14 -8.563435e-03
1.113304e-01 -4.657047e-14 -7.919197e-03
1.152940e-01 -3.916513e-14 -6.664971e-03
1.177351e-01 -5.299112e-14 -4.775152e-03
1.181898e-01 -5.381594e-14 -2.415044e-03
1.163878e-01 -6.672191e-14 2.880940e-06
1.123827e-01 -6.854255e-14 2.059976e-03
1.067423e-01 -7.558673e-14 3.502407e-03
1.002441e-01 -9.660746e-14 4.226391e-03
9.366900e-02 -7.969531e-14 4.228729e-03
8.761848e-02 -7.395408e-14 3.610405e-03
8.245580e-02 -6.617227e-14 2.589325e-03
7.831577e-02 1.683032e-15 1.425294e-03
7.521995e-02 4.777191e-15 4.030030e-04
7.308223e-02 9.744540e-14 -3.286433e-04
7.170051e-02 8.775963e-14 -6.013216e-04
7.062973e-02 1.393577e-13 -4.559395e-04
6.940783e-02 9.728552e-14 1.676195e-04
6.748714e-02 1.175250e-13 1.343242e-03
6.434609e-02 5.931966e-14 2.624402e-03
5.965974e-02 1.039988e-13 5.067044e-03
5.288585e-02 5.560419e-14 6.246207e-03
4.477410e-02 3.872435e-14 1.096283e-02
3.354071e-02 -1.257249e-14 1.211229e-02
2.059717e-02 6.743023e-14 2.566126e-02
0.000000e+00 3.155577e-14 4.351331e-02
0.000000e+00 3.274972e-15 -2.593615e-02
1.094639e-02 -1.964097e-14 -2.236773e-02
2.381815e-02 -1.810184e-14 -1.791443e-02
3.595980e-02 1.249742e-15 -1.558508e-02
4.666371e-02 -3.419688e-14 -1.351117e-02
5.579278e-02 -1.995840e-14 -1.208497e-02
6.354016e-02 1.746612e-15 -1.073739e-02
6.997916e-02 -2.410774e-14 -9.639772e-03
7.535707e-02 5.096429e-15 -8.777261e-03
7.990406e-02 -7.320740e-15 -8.286464e-03
8.395949e-02 9.689560e-16 -8.124276e-03
8.787421e-02 -2.236844e-14 -8.201998e-03
9.198653e-02 1.749469e-14 -8.404113e-03
9.649523e-02 -3.632188e-14 -8.628673e-03
1.014067e-01 -8.627687e-15 -8.735460e-03
1.065010e-01 -1.214612e-14 -8.563435e-03
1.113304e-01 -5.405278e-14 -7.919197e-03
1.152940e-01 -4.664135e-14 -6.664971e-03
1.177351e-01 -6.296615e-14 -4.775152e-03
1.181898e-01 -6.098863e-14 -2.415044e-03
1.163878e-01 -6.875833e-14 2.880940e-06
1.123827e-01 -6.041243e-14 2.059976e-03
1.067423e-01 -5.254469e-14 3.502407e-03
1.002441e-01 -5.705322e-14 4.226391e-03
9.366900e-02 -7.578261e-15 4.228729e-03
8.761848e-02 1.186312e-14 3.610405e-03
8.245580e-02 1.294704e-14 2.589325e-03
7.831577e-02 9.168936e-14 1.425294e-03
7.521995e-02 6.879235e-14 4.030030e-04
7.308223e-02 1.502425e-13 -3.286433e-04
7.170051e-02 1.107872e-13 -6.013216e-04
7.062973e-02 1.578570e-13 -4.559395e-04
6.940783e-02 9.850658e-14 1.676195e-04
6.748714e-02 1.266779e-13 1.343242e-03
6.434609e-02 4.785676e-14 2.624402e-03
5.965974e-02 1.088743e-13 5.067044e-03
5.288585e-02 3.230164e-14 6.246207e-03
4.477410e-02 4.692600e-14 1.096283e-02
3.354071e-02 -5.580092e-14 1.211229e-02
2.059717e-02 1.003213e-13 2.566126e-02
0.000000e+00 -7.063364e-16 4.351331e-02
0.000000e+00 -1.534425e-14 -2.593615e-02
1.094639e-02 -3.460303e-14 -2.236773e-02
2.381815e-02 -1.263382e-14 -1.791443e-02
3.595980e-02 5.941465e-15 -1.558508e-02
4.666371e-02 -2.786699e-14 -1.351117e-02
5.579278e-02 -6.606299e-15 -1.208497e-02
6.354016e-02 7.868911e-15 -1.073739e-02
6.997916e-02 -1.915443e-14 -9.639772e-03
7.535707e-02 7.535349e-15 -8.777261e-03
7.990406e-02 -9.458644e-15 -8.286464e-03
8.395949e-02 -1.810904e-15 -8.124276e-03
8.787421e-02 -2.629091e-14 -8.201998e-03
9.198653e-02 1.543871e-14 -8.404113e-03
9.649523e-02 -3.495141e-14 -8.628673e-03
1.014067e-01 -5.565278e-15 -8.735460e-03
1.065010e-01 -1.603722e-14 -8.563435e-03
1.113304e-01 -4.801553e-14 -7.919197e-03
1.152940e-01 -4.327551e-14 -6.664971e-03
1.177351e-01 -5.441439e-14 -4.775152e-03
1.181898e-01 -5.673962e-14 -2.415044e-03
1.163878e-01 -5.857961e-14 2.880940e-06
1.123827e-01 -5.554904e-14 2.059976e-03
1.067423e-01 -4.320704e-14 3.502407e-03
1.002441e-01 -5.243923e-14 4.226391e-03
9.366900e-02 -7.302481e-15 4.228729e-03
8.761848e-02 2.103970e-15 3.610405e-03
8.245580e-02 1.014849e-14 2.589325e-03
7.831577e-02 7.087945e-14 1.425294e-03
7.521995e-02 5.409869e-14 4.030030e-04
7.308223e-02 1.215684e-13 -3.286433e-04
7.170051e-02 9.853525e-14 -6.013216e-04
7.062973e-02 1.358293e-13 -4.559395e-04
6.940783e-02 8.823246e-14 1.676195e-04
6.748714e-02 1.038561e-13 1.343242e-03
6.434609e-02 5.296820e-14 2.624402e-03
5.965974e-02 7.511307e-14 5.067044e-03
5.288585e-02 4.802284e-14 6.246207e-03
4.477410e-02 2.130931e-14 1.096283e-02
3.354071e-02 -2.326769e-14 1.211229e-02
2.059717e-02 7.021484e-14 2.566126e-02
0.000000e+00 2.206981e-14 4.351331e-02
0.000000e+00 -4.656784e-14 -2.593615e-02
1.094639e-02 -4.728369e-14 -2.236773e-02
2.381815e-02 -2.341297e-14 -1.791443e-02
3.595980e-02 1.156063e-14 -1.558508e-02
4.666371e-02 -1.258297e-14 -1.351117e-02
5.579278e-02 2.004891e-15 -1.208497e-02
6.354016e-02 8.423475e-15 -1.073739e-02
6.997916e-02 -4.297468e-15 -9.639772e-03
7.535707e-02 3.786238e-15 -8.777261e-03
7.990406e-02 -1.116365e-14 -8.286464e-03
8.395949e-02 -6.927155e-15 -8.124276e-03