# vtk DataFile Version 3.0
vtk output
ASCII
DATASET UNSTRUCTURED_GRID
POINTS 11767 float
0.000000e+00 0.000000e+00 0.000000e+00
1.460000e-02 0.000000e+00 0.000000e+00
2.920000e-02 0.000000e+00 0.000000e+00
4.380000e-02 0.000000e+00 0.000000e+00
5.840000e-02 0.000000e+00 0.000000e+00
7.300000e-02 0.000000e+00 0.000000e+00
8.760000e-02 0.000000e+00 0.000000e+00
1.022000e-01 0.000000e+00 0.000000e+00
1.168000e-01 0.000000e+00 0.000000e+00
1.314000e-01 0.000000e+00 0.000000e+00
1.460000e-01 0.000000e+00 0.000000e+00
1.606000e-01 0.000000e+00 0.000000e+00
1.752000e-01 0.000000e+00 0.000000e+00
1.898000e-01 0.000000e+00 0.000000e+00
2.044000e-01 0.000000e+00 0.000000e+00
2.190000e-01 0.000000e+00 0.000000e+00
2.336000e-01 0.000000e+00 0.000000e+00
2.482000e-01 0.000000e+00 0.000000e+00
2.628000e-01 0.000000e+00 0.000000e+00
2.774000e-01 0.000000e+00 0.000000e+00
2.920000e-01 0.000000e+00 0.000000e+00
3.066000e-01 0.000000e+00 0.000000e+00
3.212000e-01 0.000000e+00 0.000000e+00
3.358000e-01 0.000000e+00 0.000000e+00
3.504000e-01 0.000000e+00 0.000000e+00
3.650000e-01 0.000000e+00 0.000000e+00
3.796000e-01 0.000000e+00 0.000000e+00
3.942000e-01 0.000000e+00 0.000000e+00
4.088000e-01 0.000000e+00 0.000000e+00
4.234000e-01 0.000000e+00 0.000000e+00
4.380000e-01 0.000000e+00 0.000000e+00
4.526000e-01 0.000000e+00 0.000000e+00
4.672000e-01 0.000000e+00 0.000000e+00
4.818000e-01 0.000000e+00 0.000000e+00
4.964000e-01 0.000000e+00 0.000000e+00
5.110000e-01 0.000000e+00 0.000000e+00
5.256000e-01 0.000000e+00 0.000000e+00
5.402000e-01 0.000000e+00 0.000000e+00
5.548000e-01 0.000000e+00 0.000000e+00
5.694000e-01 0.000000e+00 0.000000e+00
5.840000e-01 0.000000e+00 0.000000e+00
0.000000e+00 1.460000e-02 0.000000e+00
1.460000e-02 1.460000e-02 0.000000e+00
2.920000e-02 1.460000e-02 0.000000e+00
4.380000e-02 1.460000e-02 0.000000e+00
5.840000e-02 1.460000e-02 0.000000e+00
7.300000e-02 1.460000e-02 0.000000e+00
8.760000e-02 1.460000e-02 0.000000e+00
1.022000e-01 1.460000e-02 0.000000e+00
1.168000e-01 1.460000e-02 0.000000e+00
1.314000e-01 1.460000e-02 0.000000e+00
1.460000e-01 1.460000e-02 0.000000e+00
1.606000e-01 1.460000e-02 0.000000e+00
1.752000e-01 1.460000e-02 0.000000e+00
1.898000e-01 1.460000e-02 0.000000e+00
2.044000e-01 1.460000e-02 0.000000e+00
2.190000e-01 1.460000e-02 0.000000e+00
2.336000e-01 1.460000e-02 0.000000e+00
2.482000e-01 1.460000e-02 0.000000e+00
2.628000e-01 1.460000e-02 0.000000e+00
2.774000e-01 1.460000e-02 0.000000e+00
2.920000e-01 1.460000e-02 0.000000e+00
3.066000e-01 1.460000e-02 0.000000e+00
3.212000e-01 1.460000e-02 0.000000e+00
3.358000e-01 1.460000e-02 0.000000e+00
3.504000e-01 1.460000e-02 0.000000e+00
3.650000e-01 1.460000e-02 0.000000e+00
3.796000e-01 1.460000e-02 0.000000e+00
3.942000e-01 1.460000e-02 0.000000e+00
4.088000e-01 1.460000e-02 0.000000e+00
4.234000e-01 1.460000e-02 0.000000e+00
4.380000e-01 1.460000e-02 0.000000e+00
4.526000e-01 1.460000e-02 0.000000e+00
4.672000e-01 1.460000e-02 0.000000e+00
4.818000e-01 1.460000e-02 0.000000e+00
4.964000e-01 1.460000e-02 0.000000e+00
5.110000e-01 1.460000e-02 0.000000e+00
5.256000e-01 1.460000e-02 0.000000e+00
5.402000e-01 1.460000e-02 0.000000e+00
5.548000e-01 1.460000e-02 0.000000e+00
5.694000e-01 1.460000e-02 0.000000e+00
5.840000e-01 1.460000e-02 0.000000e+00
0.000000e+00 2.920000e-02 0.000000e+00
1.460000e-02 2.920000e-02 0.000000e+00
2.920000e-02 2.920000e-02 0.000000e+00
4.380000e-02 2.920000e-02 0.000000e+00
5.840000e-02 2.920000e-02 0.000000e+00
7.300000e-02 2.920000e-02 0.000000e+00
8.760000e-02 2.920000e-02 0.000000e+00
1.022000e-01 2.920000e-02 0.000000e+00
1.168000e-01 2.920000e-02 0.000000e+00
1.314000e-01 2.920000e-02 0.000000e+00
1.460000e-01 2.920000e-02 0.000000e+00
1.606000e-01 2.920000e-02 0.000000e+00
1.752000e-01 2.920000e-02 0.000000e+00
1.898000e-01 2.920000e-02 0.000000e+00
2.044000e-01 2.920000e-02 0.000000e+00
2.190000e-01 2.920000e-02 0.000000e+00
2.336000e-01 2.920000e-02 0.000000e+00
2.482000e-01 2.920000e-02 0.000000e+00
2.628000e-01 2.920000e-02 0.000000e+00
2.774000e-01 2.920000e-02 0.000000e+00
2.920000e-01 2.920000e-02 0.000000e+00
3.066000e-01 2.920000e-02 0.000000e+00
3.212000e-01 2.920000e-02 0.000000e+00
3.358000e-01 2.920000e-02 0.000000e+00
3.504000e-01 2.920000e-02 0.000000e+00
3.650000e-01 2.920000e-02 0.000000e+00
3.796000e-01 2.920000e-02 0.000000e+00
3.942000e-01 2.920000e-02 0.000000e+00
4.088000e-01 2.920000e-02 0.000000e+00
4.234000e-01 2.920000e-02 0.000000e+00
4.380000e-01 2.920000e-02 0.000000e+00
4.526000e-01 2.920000e-02 0.000000e+00
4.672000e-01 2.920000e-02 0.000000e+00
4.818000e-01 2.920000e-02 0.000000e+00
4.964000e-01 2.920000e-02 0.000000e+00
5.110000e-01 2.920000e-02 0.000000e+00
5.256000e-01 2.920000e-02 0.000000e+00
5.402000e-01 2.920000e-02 0.000000e+00
5.548000e-01 2.920000e-02 0.000000e+00
5.694000e-01 2.920000e-02 0.000000e+00
5.840000e-01 2.920000e-02 0.000000e+00
0.000000e+00 4.380000e-02 0.000000e+00
1.460000e-02 4.380000e-02 0.000000e+00
2.920000e-02 4.380000e-02 0.000000e+00
4.380000e-02 4.380000e-02 0.000000e+00
5.840000e-02 4.380000e-02 0.000000e+00
7.300000e-02 4.380000e-02 0.000000e+00
8.760000e-02 4.380000e-02 0.000000e+00
1.022000e-01 4.380000e-02 0.000000e+00
1.168000e-01 4.380000e-02 0.000000e+00
1.314000e-01 4.380000e-02 0.000000e+00
1.460000e-01 4.380000e-02 0.000000e+00
1.606000e-01 4.380000e-02 0.000000e+00
1.752000e-01 4.380000e-02 0.000000e+00
1.898000e-01 4.380000e-02 0.000000e+00
2.044000e-01 4.380000e-02 0.000000e+00
2.190000e-01 4.380000e-02 0.000000e+00
2.336000e-01 4.380000e-02 0.000000e+00
2.482000e-01 4.380000e-02 0.000000e+00
2.628000e-01 4.380000e-02 0.000000e+00
2.774000e-01 4.380000e-02 0.000000e+00
2.920000e-01 4.380000e-02 0.000000e+00
3.066000e-01 4.380000e-02 0.000000e+00
3.212000e-01 4.380000e-02 0.000000e+00
3.358000e-01 4.380000e-02 0.000000e+00
3.504000e-01 4.380000e-02 0.000000e+00
3.650000e-01 4.380000e-02 0.000000e+00
3.796000e-01 4.380000e-02 0.000000e+00
3.942000e-01 4.380000e-02 0.000000e+00
4.088000e-01 4.380000e-02 0.000000e+00
4.234000e-01 4.380000e-02 0.000000e+00
4.380000e-01 4.380000e-02 0.000000e+00
4.526000e-01 4.380000e-02 0.000000e+00
4.672000e-01 4.380000e-02 0.000000e+00
4.818000e-01 4.380000e-02 0.000000e+00
4.964000e-01 4.380000e-02 0.000000e+00
5.110000e-01 4.380000e-02 0.000000e+00
5.256000e-01 4.380000e-02 0.000000e+00
5.402000e-01 4.380000e-02 0.000000e+00
5.548000e-01 4.380000e-02 0.000000e+00
5.694000e-01 4.380000e-02 0.000000e+00
5.840000e-01 4.380000e-02 0.000000e+00
0.000000e+00 5.840000e-02 0.000000e+00
1.460000e-02 5.840000e-02 0.000000e+00
2.920000e-02 5.840000e-02 0.000000e+00
4.380000e-02 5.840000e-02 0.000000e+00
5.840000e-02 5.840000e-02 0.000000e+00
7.300000e-02 5.840000e-02 0.000000e+00
8.760000e-02 5.840000e-02 0.000000e+00
1.022000e-01 5.840000e-02 0.000000e+00
1.168000e-01 5.840000e-02 0.000000e+00
1.314000e-01 5.840000e-02 0.000000e+00
1.460000e-01 5.840000e-02 0.000000e+00
1.606000e-01 5.840000e-02 0.000000e+00
1.752000e-01 5.840000e-02 0.000000e+00
1.898000e-01 5.840000e-02 0.000000e+00
2.044000e-01 5.840000e-02 0.000000e+00
2.190000e-01 5.840000e-02 0.000000e+00
2.336000e-01 5.840000e-02 0.000000e+00
2.482000e-01 5.840000e-02 0.000000e+00
2.628000e-01 5.840000e-02 0.000000e+00
2.774000e-01 5.840000e-02 0.000000e+00
2.920000e-01 5.840000e-02 0.000000e+00
3.066000e-01 5.840000e-02 0.000000e+00
3.212000e-01 5.840000e-02 0.000000e+00
3.358000e-01 5.840000e-02 0.000000e+00
3.504000e-01 5.840000e-02 0.000000e+00
3.650000e-01 5.840000e-02 0.000000e+00
3.796000e-01 5.840000e-02 0.000000e+00
3.942000e-01 5.840000e-02 0.000000e+00
4.088000e-01 5.840000e-02 0.000000e+00
4.234000e-01 5.840000e-02 0.000000e+00
4.380000e-01 5.840000e-02 0.000000e+00
4.526000e-01 5.840000e-02 0.000000e+00
4.672000e-01 5.840000e-02 0.000000e+00
4.818000e-01 5.840000e-02 0.000000e+00
4.964000e-01 5.840000e-02 0.000000e+00
5.110000e-01 5.840000e-02 0.000000e+00
5.256000e-01 5.840000e-02 0.000000e+00
5.402000e-01 5.840000e-02 0.000000e+00
5.548000e-01 5.840000e-02 0.000000e+00
5.694000e-01 5.840000e-02 0.000000e+00
5.840000e-01 5.840000e-02 0.000000e+00
0.000000e+00 7.300000e-02 0.000000e+00
1.460000e-02 7.300000e-02 0.000000e+00
2.920000e-02 7.300000e-02 0.000000e+00
4.380000e-02 7.300000e-02 0.000000e+00
5.840000e-02 7.300000e-02 0.000000e+00
7.300000e-02 7.300000e-02 0.000000e+00
8.760000e-02 7.300000e-02 0.000000e+00
1.022000e-01 7.300000e-02 0.000000e+00
1.168000e-01 7.300000e-02 0.000000e+00
1.314000e-01 7.300000e-02 0.000000e+00
1.460000e-01 7.300000e-02 0.000000e+00
1.606000e-01 7.300000e-02 0.000000e+00
1.752000e-01 7.300000e-02 0.000000e+00
1.898000e-01 7.300000e-02 0.000000e+00
2.044000e-01 7.300000e-02 0.000000e+00
2.190000e-01 7.300000e-02 0.000000e+00
2.336000e-01 7.300000e-02 0.000000e+00
2.482000e-01 7.300000e-02 0.000000e+00
2.628000e-01 7.300000e-02 0.000000e+00
2.774000e-01 7.300000e-02 0.000000e+00
2.920000e-01 7.300000e-02 0.000000e+00
3.066000e-01 7.300000e-02 0.000000e+00
3.212000e-01 7.300000e-02 0.000000e+00
3.358000e-01 7.300000e-02 0.000000e+00
3.504000e-01 7.300000e-02 0.000000e+00
3.650000e-01 7.300000e-02 0.000000e+00
3.796000e-01 7.300000e-02 0.000000e+00
3.942000e-01 7.300000e-02 0.000000e+00
4.088000e-01 7.300000e-02 0.000000e+00
4.234000e-01 7.300000e-02 0.000000e+00
4.380000e-01 7.300000e-02 0.000000e+00
4.526000e-01 7.300000e-02 0.000000e+00
4.672000e-01 7.300000e-02 0.000000e+00
4.818000e-01 7.300000e-02 0.000000e+00
4.964000e-01 7.300000e-02 0.000000e+00
5.110000e-01 7.300000e-02 0.000000e+00
5.256000e-01 7.300000e-02 0.000000e+00
5.402000e-01 7.300000e-02 0.000000e+00
5.548000e-01 7.300000e-02 0.000000e+00
5.694000e-01 7.300000e-02 0.000000e+00
5.840000e-01 7.300000e-02 0.000000e+00
0.000000e+00 8.760000e-02 0.000000e+00
1.460000e-02 8.760000e-02 0.000000e+00
2.920000e-02 8.760000e-02 0.000000e+00
4.380000e-02 8.760000e-02 0.000000e+00
5.840000e-02 8.760000e-02 0.000000e+00
7.300000e-02 8.760000e-02 0.000000e+00
8.760000e-02 8.760000e-02 0.000000e+00
1.022000e-01 8.760000e-02 0.000000e+00
[...]
POINT_DATA 11767
VECTORS Velocity float
0.000000e+00 0.000000e+00 0.000000e+00
6.278677e-02 0.000000e+00 0.000000e+00
1.092046e-01 0.000000e+00 0.000000e+00
1.520862e-01 0.000000e+00 0.000000e+00
1.931334e-01 0.000000e+00 0.000000e+00
2.347497e-01 0.000000e+00 0.000000e+00
2.764968e-01 0.000000e+00 0.000000e+00
3.186022e-01 0.000000e+00 0.000000e+00
3.605582e-01 0.000000e+00 0.000000e+00
4.023325e-01 0.000000e+00 0.000000e+00
4.437787e-01 0.000000e+00 0.000000e+00
4.850798e-01 0.000000e+00 0.000000e+00
5.260621e-01 0.000000e+00 0.000000e+00
5.667435e-01 0.000000e+00 0.000000e+00
6.070113e-01 0.000000e+00 0.000000e+00
6.467199e-01 0.000000e+00 0.000000e+00
6.858300e-01 0.000000e+00 0.000000e+00
7.240760e-01 0.000000e+00 0.000000e+00
7.615232e-01 0.000000e+00 0.000000e+00
7.975606e-01 0.000000e+00 0.000000e+00
8.325128e-01 0.000000e+00 0.000000e+00
8.653405e-01 0.000000e+00 0.000000e+00
8.965708e-01 0.000000e+00 0.000000e+00
9.246506e-01 0.000000e+00 0.000000e+00
9.502397e-01 0.000000e+00 0.000000e+00
9.712183e-01 0.000000e+00 0.000000e+00
9.880336e-01 0.000000e+00 0.000000e+00
9.982712e-01 0.000000e+00 0.000000e+00
1.001544e+00 0.000000e+00 0.000000e+00
9.957890e-01 0.000000e+00 0.000000e+00
9.791194e-01 0.000000e+00 0.000000e+00
9.511036e-01 0.000000e+00 0.000000e+00
9.078247e-01 0.000000e+00 0.000000e+00
8.536146e-01 0.000000e+00 0.000000e+00
7.801776e-01 0.000000e+00 0.000000e+00
7.010399e-01 0.000000e+00 0.000000e+00
5.951362e-01 0.000000e+00 0.000000e+00
4.972253e-01 0.000000e+00 0.000000e+00
3.527213e-01 0.000000e+00 0.000000e+00
2.436707e-01 0.000000e+00 0.000000e+00
0.000000e+00 0.000000e+00 0.000000e+00
0.000000e+00 1.041007e-14 0.000000e+00
6.278677e-02 3.267137e-14 0.000000e+00
1.092046e-01 1.725500e-14 0.000000e+00
1.520862e-01 -4.390676e-15 0.000000e+00
1.931334e-01 -1.139212e-15 0.000000e+00
2.347497e-01 5.855051e-15 0.000000e+00
2.764968e-01 -9.036492e-15 0.000000e+00
3.186022e-01 -1.888484e-15 0.000000e+00
3.605582e-01 -2.185218e-14 0.000000e+00
4.023325e-01 1.407110e-15 0.000000e+00
4.437787e-01 -2.823092e-15 0.000000e+00
4.850798e-01 4.270874e-15 0.000000e+00
5.260621e-01 -2.872752e-15 0.000000e+00
5.667435e-01 -4.892362e-16 0.000000e+00
6.070113e-01 5.917377e-16 0.000000e+00
6.467199e-01 1.157893e-15 0.000000e+00
6.858300e-01 1.096308e-15 0.000000e+00
7.240760e-01 -2.770496e-15 0.000000e+00
7.615232e-01 1.860130e-15 0.000000e+00
7.975606e-01 -2.269103e-15 0.000000e+00
8.325128e-01 -5.078784e-16 0.000000e+00
8.653405e-01 2.647179e-15 0.000000e+00
8.965708e-01 -2.417822e-15 0.000000e+00
9.246506e-01 7.811550e-15 0.000000e+00
9.502397e-01 -2.871465e-15 0.000000e+00
9.712183e-01 3.055935e-15 0.000000e+00
9.880336e-01 -1.174922e-14 0.000000e+00
9.982712e-01 1.003011e-16 0.000000e+00
1.001544e+00 -4.462877e-15 0.000000e+00
9.957890e-01 -2.515466e-15 0.000000e+00
9.791194e-01 -3.064030e-15 0.000000e+00
9.511036e-01 -2.271829e-15 0.000000e+00
9.078247e-01 -1.209132e-14 0.000000e+00
8.536146e-01 2.441177e-15 0.000000e+00
7.801776e-01 -1.121075e-14 0.000000e+00
7.010399e-01 6.712667e-15 0.000000e+00
5.951362e-01 -2.872925e-15 0.000000e+00
4.972253e-01 -4.586055e-15 0.000000e+00
3.527213e-01 -3.251530e-15 0.000000e+00
2.436707e-01 2.799544e-14 0.000000e+00
0.000000e+00 1.862809e-14 0.000000e+00
0.000000e+00 5.829718e-15 0.000000e+00
6.278677e-02 9.694654e-15 0.000000e+00
1.092046e-01 3.527423e-14 0.000000e+00
1.520862e-01 -4.724726e-16 0.000000e+00
1.931334e-01 9.072457e-16 0.000000e+00
2.347497e-01 5.539025e-15 0.000000e+00
2.764968e-01 4.308174e-15 0.000000e+00
3.186022e-01 -2.237615e-14 0.000000e+00
3.605582e-01 -1.704289e-14 0.000000e+00
4.023325e-01 -1.169244e-14 0.000000e+00
4.437787e-01 9.044161e-16 0.000000e+00
4.850798e-01 4.002126e-15 0.000000e+00
5.260621e-01 -4.059192e-15 0.000000e+00
5.667435e-01 6.979860e-15 0.000000e+00
6.070113e-01 -3.731054e-15 0.000000e+00
6.467199e-01 1.384879e-15 0.000000e+00
6.858300e-01 7.168526e-15 0.000000e+00
7.240760e-01 -1.149727e-14 0.000000e+00
7.615232e-01 4.018006e-16 0.000000e+00
7.975606e-01 5.041927e-15 0.000000e+00
8.325128e-01 -7.032562e-15 0.000000e+00
8.653405e-01 -3.868386e-15 0.000000e+00
8.965708e-01 9.732976e-16 0.000000e+00
9.246506e-01 1.133865e-14 0.000000e+00
9.502397e-01 -5.392385e-15 0.000000e+00
9.712183e-01 2.376523e-15 0.000000e+00
9.880336e-01 -1.411498e-14 0.000000e+00
9.982712e-01 5.055782e-17 0.000000e+00
1.001544e+00 -8.879951e-15 0.000000e+00
9.957890e-01 -1.188860e-14 0.000000e+00
9.791194e-01 -7.211991e-16 0.000000e+00
9.511036e-01 2.585829e-15 0.000000e+00
9.078247e-01 -9.896319e-15 0.000000e+00
8.536146e-01 -7.141285e-15 0.000000e+00
7.801776e-01 -6.699996e-15 0.000000e+00
7.010399e-01 4.995364e-15 0.000000e+00
5.951362e-01 8.536244e-15 0.000000e+00
4.972253e-01 -2.406415e-14 0.000000e+00
3.527213e-01 4.480062e-15 0.000000e+00
2.436707e-01 1.776692e-14 0.000000e+00
0.000000e+00 -3.654127e-14 0.000000e+00
0.000000e+00 5.529607e-14 0.000000e+00
6.278677e-02 -1.060213e-14 0.000000e+00
1.092046e-01 3.041939e-14 0.000000e+00
1.520862e-01 1.179076e-14 0.000000e+00
1.931334e-01 -8.942806e-16 0.000000e+00
2.347497e-01 3.120297e-15 0.000000e+00
2.764968e-01 2.419109e-15 0.000000e+00
3.186022e-01 -1.248334e-14 0.000000e+00
3.605582e-01 -2.006655e-14 0.000000e+00
4.023325e-01 -8.074207e-15 0.000000e+00
4.437787e-01 5.489579e-15 0.000000e+00
4.850798e-01 5.407835e-15 0.000000e+00
5.260621e-01 -4.150673e-15 0.000000e+00
5.667435e-01 7.370508e-15 0.000000e+00
6.070113e-01 -1.658335e-15 0.000000e+00
6.467199e-01 8.343493e-16 0.000000e+00
6.858300e-01 1.738577e-14 0.000000e+00
7.240760e-01 -1.584908e-14 0.000000e+00
7.615232e-01 -4.688889e-16 0.000000e+00
7.975606e-01 7.531502e-15 0.000000e+00
8.325128e-01 -6.250587e-15 0.000000e+00
8.653405e-01 -7.131987e-15 0.000000e+00
8.965708e-01 6.434283e-15 0.000000e+00
9.246506e-01 8.959572e-15 0.000000e+00
9.502397e-01 -6.636327e-15 0.000000e+00
9.712183e-01 3.766556e-15 0.000000e+00
9.880336e-01 -1.754782e-14 0.000000e+00
9.982712e-01 -4.964328e-15 0.000000e+00
1.001544e+00 -5.024860e-15 0.000000e+00
9.957890e-01 -1.033964e-14 0.000000e+00
9.791194e-01 -3.267934e-15 0.000000e+00
9.511036e-01 2.990691e-15 0.000000e+00
9.078247e-01 -8.396051e-15 0.000000e+00
8.536146e-01 -3.518674e-15 0.000000e+00
7.801776e-01 -9.790639e-15 0.000000e+00
7.010399e-01 1.401260e-14 0.000000e+00
5.951362e-01 2.836023e-15 0.000000e+00
4.972253e-01 -2.476046e-14 0.000000e+00
3.527213e-01 -3.378872e-15 0.000000e+00
2.436707e-01 3.147537e-14 0.000000e+00
0.000000e+00 1.239563e-14 0.000000e+00
0.000000e+00 1.827249e-14 0.000000e+00
6.278677e-02 3.536594e-15 0.000000e+00
1.092046e-01 3.127474e-14 0.000000e+00
1.520862e-01 -8.501732e-15 0.000000e+00
1.931334e-01 1.041696e-14 0.000000e+00
2.347497e-01 -8.857373e-15 0.000000e+00
2.764968e-01 1.353951e-14 0.000000e+00
3.186022e-01 -9.516416e-16 0.000000e+00
3.605582e-01 -2.157112e-14 0.000000e+00
4.023325e-01 -1.107910e-14 0.000000e+00
4.437787e-01 -2.521101e-15 0.000000e+00
4.850798e-01 -5.359095e-16 0.000000e+00
5.260621e-01 1.356002e-15 0.000000e+00
5.667435e-01 3.447689e-15 0.000000e+00
6.070113e-01 6.341497e-16 0.000000e+00
6.467199e-01 3.393140e-15 0.000000e+00
6.858300e-01 1.563415e-14 0.000000e+00
7.240760e-01 -1.259490e-14 0.000000e+00
7.615232e-01 -1.309971e-15 0.000000e+00
7.975606e-01 2.454566e-15 0.000000e+00
8.325128e-01 -3.232813e-15 0.000000e+00
8.653405e-01 -5.829378e-15 0.000000e+00
8.965708e-01 1.859378e-15 0.000000e+00
9.246506e-01 5.349441e-15 0.000000e+00
9.502397e-01 -2.125090e-15 0.000000e+00
9.712183e-01 5.324121e-15 0.000000e+00
9.880336e-01 -1.894919e-14 0.000000e+00
9.982712e-01 -2.642379e-15 0.000000e+00
1.001544e+00 -5.449864e-15 0.000000e+00
9.957890e-01 -7.098029e-15 0.000000e+00
9.791194e-01 -6.117027e-15 0.000000e+00
9.511036e-01 4.287797e-15 0.000000e+00
9.078247e-01 -4.787311e-15 0.000000e+00
8.536146e-01 -6.599331e-15 0.000000e+00
7.801776e-01 -2.347450e-15 0.000000e+00
7.010399e-01 4.806191e-15 0.000000e+00
5.951362e-01 1.292037e-14 0.000000e+00
4.972253e-01 -2.882244e-14 0.000000e+00
3.527213e-01 4.615694e-15 0.000000e+00
2.436707e-01 1.062817e-14 0.000000e+00
0.000000e+00 -4.901449e-14 0.000000e+00
0.000000e+00 -5.202319e-14 0.000000e+00
6.278677e-02 -2.669748e-14 0.000000e+00
1.092046e-01 7.013347e-15 0.000000e+00
1.520862e-01 -2.374698e-14 0.000000e+00
1.931334e-01 -1.482861e-15 0.000000e+00
2.347497e-01 -5.021638e-15 0.000000e+00
2.764968e-01 -5.407289e-15 0.000000e+00
3.186022e-01 -6.006353e-15 0.000000e+00
3.605582e-01 -1.588689e-14 0.000000e+00
4.023325e-01 -1.230185e-14 0.000000e+00
4.437787e-01 -4.874638e-15 0.000000e+00
4.850798e-01 -2.644598e-16 0.000000e+00
5.260621e-01 -1.209501e-15 0.000000e+00
5.667435e-01 8.163912e-16 0.000000e+00
6.070113e-01 -7.019159e-15 0.000000e+00
6.467199e-01 1.415620e-15 0.000000e+00
6.858300e-01 3.936663e-15 0.000000e+00
7.240760e-01 -8.863287e-15 0.000000e+00
7.615232e-01 -7.559204e-15 0.000000e+00
7.975606e-01 9.851245e-15 0.000000e+00
8.325128e-01 -5.268512e-15 0.000000e+00
8.653405e-01 -1.902187e-15 0.000000e+00
8.965708e-01 -4.707693e-15 0.000000e+00
9.246506e-01 6.064389e-15 0.000000e+00
9.502397e-01 -8.719922e-15 0.000000e+00
9.712183e-01 6.239410e-15 0.000000e+00
9.880336e-01 -1.499199e-14 0.000000e+00
9.982712e-01 2.441912e-15 0.000000e+00
1.001544e+00 -3.913980e-15 0.000000e+00
9.957890e-01 -3.104061e-15 0.000000e+00
9.791194e-01 -7.190508e-15 0.000000e+00
9.511036e-01 7.566254e-15 0.000000e+00
9.078247e-01 -1.032987e-14 0.000000e+00
8.536146e-01 -2.637352e-15 0.000000e+00
7.801776e-01 -9.782190e-15 0.000000e+00
7.010399e-01 4.080086e-15 0.000000e+00
5.951362e-01 -6.452307e-15 0.000000e+00
4.972253e-01 -7.197640e-15 0.000000e+00
3.527213e-01 -1.547442e-14 0.000000e+00
2.436707e-01 2.547700e-14 0.000000e+00
0.000000e+00 4.306449e-14 0.000000e+00
0.000000e+00 0.000000e+00 0.000000e+00
6.278677e-02 0.000000e+00 0.000000e+00
1.092046e-01 0.000000e+00 0.000000e+00
1.520862e-01 0.000000e+00 0.000000e+00
1.931334e-01 0.000000e+00 0.000000e+00
2.347497e-01 0.000000e+00 0.000000e+00
2.764968e-01 0.000000e+00 0.000000e+00
3.186022e-01 0.000000e+00 0.000000e+00
3.605582e-01 0.000000e+00 0.000000e+00
4.023325e-01 0.000000e+00 0.000000e+00
4.437787e-01 0.000000e+00 0.000000e+00
4.850798e-01 0.000000e+00 0.000000e+00
5.260621e-01 0.000000e+00 0.000000e+00
5.667435e-01 0.000000e+00 0.000000e+00
6.070113e-01 0.000000e+00 0.000000e+00
6.467199e-01 0.000000e+00 0.000000e+00
6.858300e-01 0.000000e+00 0.000000e+00
7.240760e-01 0.000000e+00 0.000000e+00
7.615232e-01 0.000000e+00 0.000000e+00
7.975606e-01 0.000000e+00 0.000000e+00
8.325128e-01 0.000000e+00 0.000000e+00
8.653405e-01 0.000000e+00 0.000000e+00
8.965708e-01 0.000000e+00 0.000000e+00
9.246506e-01 0.000000e+00 0.000000e+00
9.502397e-01 0.000000e+00 0.000000e+00
9.712183e-01 0.000000e+00 0.000000e+00
9.880336e-01 0.000000e+00 0.000000e+00
9.982712e-01 0.000000e+00 0.000000e+00
1.001544e+00 0.000000e+00 0.000000e+00
9.957890e-01 0.000000e+00 0.000000e+00
9.791194e-01 0.000000e+00 0.000000e+00
9.511036e-01 0.000000e+00 0.000000e+00
9.078247e-01 0.000000e+00 0.000000e+00
8.536146e-01 0.000000e+00 0.000000e+00
7.801776e-01 0.000000e+00 0.000000e+00
7.010399e-01 0.000000e+00 0.000000e+00
5.951362e-01 0.000000e+00 0.000000e+00
4.972253e-01 0.000000e+00 0.000000e+00
3.527213e-01 0.000000e+00 0.000000e+00
2.436707e-01 0.000000e+00 0.000000e+00
0.000000e+00 0.000000e+00 0.000000e+00
0.000000e+00 0.000000e+00 -6.085485e-02
4.182089e-02 0.000000e+00 -5.302830e-02
8.537092e-02 0.000000e+00 -4.553364e-02
1.281718e-01 0.000000e+00 -4.457855e-02
1.706554e-01 0.000000e+00 -4.399502e-02
2.132347e-01 0.000000e+00 -4.450870e-02
2.560255e-01 0.000000e+00 -4.466094e-02
2.989072e-01 0.000000e+00 -4.476053e-02
3.416809e-01 0.000000e+00 -4.453877e-02
3.842194e-01 0.000000e+00 -4.425199e-02
4.264454e-01 0.000000e+00 -4.399413e-02
4.684552e-01 0.000000e+00 -4.376452e-02
5.101053e-01 0.000000e+00 -4.339826e-02
5.514036e-01 0.000000e+00 -4.306205e-02
5.922506e-01 0.000000e+00 -4.251598e-02
6.324815e-01 0.000000e+00 -4.194725e-02
6.720352e-01 0.000000e+00 -4.113914e-02
7.106656e-01 0.000000e+00 -4.035081e-02
7.484359e-01 0.000000e+00 -3.916707e-02
7.847771e-01 0.000000e+00 -3.795568e-02
8.199687e-01 0.000000e+00 -3.631935e-02
8.530381e-01 0.000000e+00 -3.444807e-02
8.844702e-01 0.000000e+00 -3.214424e-02
9.127825e-01 0.000000e+00 -2.920601e-02
9.385811e-01 0.000000e+00 -2.591876e-02
9.598041e-01 0.000000e+00 -2.119326e-02
9.768453e-01 0.000000e+00 -1.636026e-02
9.872803e-01 0.000000e+00 -8.927673e-03
9.906944e-01 0.000000e+00 -1.754569e-03
9.849399e-01 0.000000e+00 9.278080e-03
9.681484e-01 0.000000e+00 1.926971e-02
9.401170e-01 0.000000e+00 3.402864e-02
8.968684e-01 0.000000e+00 4.563162e-02
8.420855e-01 0.000000e+00 6.289876e-02
7.683567e-01 0.000000e+00 7.296992e-02
6.868586e-01 0.000000e+00 9.258308e-02
5.824399e-01 0.000000e+00 9.751879e-02
4.774738e-01 0.000000e+00 1.225852e-01
3.398954e-01 0.000000e+00 1.218100e-01
2.053058e-01 0.000000e+00 1.598470e-01
0.000000e+00 0.000000e+00 2.640948e-01
0.000000e+00 -1.086550e-14 -6.085485e-02
4.182089e-02 9.371531e-15 -5.302830e-02
8.537092e-02 -1.328844e-14 -4.553364e-02
1.281718e-01 7.462570e-15 -4.457855e-02
1.706554e-01 -6.540510e-15 -4.399502e-02
2.132347e-01 1.255734e-15 -4.450870e-02
2.560255e-01 -3.186355e-15 -4.466094e-02
2.989072e-01 1.088370e-14 -4.476053e-02
3.416809e-01 -4.773841e-15 -4.453877e-02
3.842194e-01 7.634036e-15 -4.425199e-02
4.264454e-01 -1.078269e-14 -4.399413e-02
4.684552e-01 -1.783131e-15 -4.376452e-02
5.101053e-01 2.283332e-15 -4.339826e-02
5.514036e-01 2.612332e-15 -4.306205e-02
5.922506e-01 -5.530583e-15 -4.251598e-02
6.324815e-01 3.319206e-15 -4.194725e-02
6.720352e-01 -5.635020e-15 -4.113914e-02
7.106656e-01 2.246643e-15 -4.035081e-02
7.484359e-01 6.231363e-16 -3.916707e-02
7.847771e-01 -2.385092e-15 -3.795568e-02
8.199687e-01 1.283887e-15 -3.631935e-02
8.530381e-01 -2.306422e-15 -3.444807e-02
8.844702e-01 -4.895072e-15 -3.214424e-02
9.127825e-01 -4.838901e-15 -2.920601e-02
9.385811e-01 -2.813412e-15 -2.591876e-02
9.598041e-01 2.522771e-15 -2.119326e-02
9.768453e-01 7.183614e-15 -1.636026e-02
9.872803e-01 5.227444e-16 -8.927673e-03
9.906944e-01 -1.183412e-14 -1.754569e-03
9.849399e-01 -8.621277e-16 9.278080e-03
9.681484e-01 -8.473810e-16 1.926971e-02
9.401170e-01 7.189430e-15 3.402864e-02
8.968684e-01 -1.489708e-15 4.563162e-02
8.420855e-01 2.426355e-15 6.289876e-02
7.683567e-01 -2.362345e-15 7.296992e-02
6.868586e-01 4.197053e-15 9.258308e-02
5.824399e-01 -1.104010e-14 9.751879e-02
4.774738e-01 1.097673e-14 1.225852e-01
3.398954e-01 -2.737712e-14 1.218100e-01
2.053058e-01 1.581966e-14 1.598470e-01
0.000000e+00 2.127708e-14 2.640948e-01
0.000000e+00 1.572077e-15 -6.085485e-02
4.182089e-02 -3.203561e-15 -5.302830e-02
8.537092e-02 -7.233893e-15 -4.553364e-02
1.281718e-01 6.258714e-15 -4.457855e-02
1.706554e-01 6.705744e-15 -4.399502e-02
2.132347e-01 -7.000298e-15 -4.450870e-02
2.560255e-01 -5.719674e-15 -4.466094e-02
2.989072e-01 9.198029e-15 -4.476053e-02
3.416809e-01 -1.237739e-15 -4.453877e-02
3.842194e-01 1.028889e-14 -4.425199e-02
4.264454e-01 -1.292759e-14 -4.399413e-02
4.684552e-01 1.481514e-15 -4.376452e-02
5.101053e-01 5.278211e-15 -4.339826e-02
5.514036e-01 5.343761e-16 -4.306205e-02
5.922506e-01 -8.238076e-15 -4.251598e-02
6.324815e-01 6.722638e-15 -4.194725e-02
6.720352e-01 -9.933677e-15 -4.113914e-02
7.106656e-01 6.698411e-15 -4.035081e-02
7.484359e-01 -5.196093e-15 -3.916707e-02
7.847771e-01 -1.857331e-15 -3.795568e-02
8.199687e-01 5.059471e-15 -3.631935e-02
8.530381e-01 -6.657991e-15 -3.444807e-02
8.844702e-01 -6.287635e-15 -3.214424e-02
9.127825e-01 -1.146002e-14 -2.920601e-02
9.385811e-01 -2.356412e-15 -2.591876e-02
9.598041e-01 6.663571e-15 -2.119326e-02
9.768453e-01 6.217994e-15 -1.636026e-02
9.872803e-01 -3.254482e-15 -8.927673e-03
9.906944e-01 -7.072218e-15 -1.754569e-03
9.849399e-01 -5.390646e-15 9.278080e-03
9.681484e-01 -3.937228e-16 1.926971e-02
9.401170e-01 5.371349e-15 3.402864e-02
8.968684e-01 -6.823726e-15 4.563162e-02
8.420855e-01 2.970534e-15 6.289876e-02
7.683567e-01 5.966702e-15 7.296992e-02
6.868586e-01 -3.385022e-16 9.258308e-02
5.824399e-01 -6.132890e-15 9.751879e-02
4.774738e-01 1.012238e-14 1.225852e-01
3.398954e-01 -3.079066e-14 1.218100e-01
2.053058e-01 7.743040e-15 1.598470e-01
0.000000e+00 2.356294e-15 2.640948e-01
0.000000e+00 5.531083e-15 -6.085485e-02
4.182089e-02 8.044073e-15 -5.302830e-02
8.537092e-02 -1.291830e-14 -4.553364e-02
1.281718e-01 1.956691e-14 -4.457855e-02
1.706554e-01 1.047695e-15 -4.399502e-02
2.132347e-01 -3.434421e-15 -4.450870e-02
2.560255e-01 -1.081585e-14 -4.466094e-02
2.989072e-01 1.824522e-14 -4.476053e-02
3.416809e-01 1.250629e-15 -4.453877e-02
3.842194e-01 1.359373e-14 -4.425199e-02
4.264454e-01 -1.261286e-14 -4.399413e-02
4.684552e-01 6.117219e-15 -4.376452e-02
5.101053e-01 7.064823e-15 -4.339826e-02
5.514036e-01 5.504240e-15 -4.306205e-02
5.922506e-01 -1.032355e-14 -4.251598e-02
6.324815e-01 3.757210e-15 -4.194725e-02
6.720352e-01 -4.902301e-15 -4.113914e-02
7.106656e-01 3.902581e-15 -4.035081e-02
7.484359e-01 -2.041360e-15 -3.916707e-02
7.847771e-01 -3.132161e-15 -3.795568e-02
8.199687e-01 7.274030e-15 -3.631935e-02
8.530381e-01 -9.280840e-15 -3.444807e-02
8.844702e-01 -4.975757e-15 -3.214424e-02
9.127825e-01 -1.006773e-14 -2.920601e-02
9.385811e-01 3.229473e-16 -2.591876e-02
9.598041e-01 3.873956e-15 -2.119326e-02
9.768453e-01 1.060770e-14 -1.636026e-02
9.872803e-01 -6.023540e-15 -8.927673e-03
9.906944e-01 -3.933985e-15 -1.754569e-03
9.849399e-01 -1.739250e-15 9.278080e-03
9.681484e-01 -2.138127e-15 1.926971e-02
9.401170e-01 5.522838e-15 3.402864e-02
8.968684e-01 -9.468623e-15 4.563162e-02
8.420855e-01 4.833219e-15 6.289876e-02
7.683567e-01 1.925563e-16 7.296992e-02
6.868586e-01 3.650578e-15 9.258308e-02
5.824399e-01 -1.321818e-14 9.751879e-02
4.774738e-01 2.014375e-14 1.225852e-01
3.398954e-01 -3.818268e-14 1.218100e-01
2.053058e-01 1.570526e-14 1.598470e-01
0.000000e+00 1.099367e-14 2.640948e-01
0.000000e+00 1.821930e-14 -6.085485e-02
4.182089e-02 -8.109542e-15 -5.302830e-02
8.537092e-02 -6.207335e-15 -4.553364e-02
1.281718e-01 1.605273e-14 -4.457855e-02
1.706554e-01 -4.679249e-15 -4.399502e-02
2.132347e-01 6.657754e-17 -4.450870e-02
2.560255e-01 -5.936847e-15 -4.466094e-02
2.989072e-01 1.690704e-14 -4.476053e-02
3.416809e-01 7.759269e-16 -4.453877e-02
3.842194e-01 1.064362e-14 -4.425199e-02
4.264454e-01 -1.421870e-14 -4.399413e-02
4.684552e-01 5.279648e-15 -4.376452e-02
5.101053e-01 5.750771e-15 -4.339826e-02
5.514036e-01 1.466314e-15 -4.306205e-02
5.922506e-01 -8.189865e-15 -4.251598e-02
6.324815e-01 3.704420e-15 -4.194725e-02
6.720352e-01 -6.545233e-15 -4.113914e-02
7.106656e-01 7.716877e-15 -4.035081e-02
7.484359e-01 -1.522613e-15 -3.916707e-02
7.847771e-01 -3.135065e-15 -3.795568e-02
8.199687e-01 9.964807e-15 -3.631935e-02
8.530381e-01 -7.320599e-15 -3.444807e-02
8.844702e-01 -5.334126e-15 -3.214424e-02
9.127825e-01 -1.457641e-14 -2.920601e-02
9.385811e-01 4.507804e-16 -2.591876e-02
9.598041e-01 4.076761e-15 -2.119326e-02
9.768453e-01 8.100024e-15 -1.636026e-02
9.872803e-01 -2.346207e-15 -8.927673e-03
9.906944e-01 -5.559348e-15 -1.754569e-03
9.849399e-01 -5.226538e-16 9.278080e-03
9.681484e-01 -4.848450e-16 1.926971e-02
9.401170e-01 -6.984314e-16 3.402864e-02
8.968684e-01 -9.057728e-15 4.563162e-02
8.420855e-01 -8.625027e-16 6.289876e-02
7.683567e-01 9.470090e-15 7.296992e-02
6.868586e-01 -4.442252e-15 9.258308e-02
5.824399e-01 -6.711893e-15 9.751879e-02
4.774738e-01 1.809930e-14 1.225852e-01
3.398954e-01 -2.588453e-14 1.218100e-01
2.053058e-01 6.251871e-15 1.598470e-01
0.000000e+00 3.393916e-15 2.640948e-01
0.000000e+00 -1.439862e-14 -6.085485e-02
4.182089e-02 8.012657e-17 -5.302830e-02
8.537092e-02 -1.041683e-14 -4.553364e-02
1.281718e-01 4.525191e-15 -4.457855e-02
1.706554e-01 -9.267936e-15 -4.399502e-02
2.132347e-01 4.656295e-15 -4.450870e-02
2.560255e-01 -1.648617e-14 -4.466094e-02
2.989072e-01 1.055924e-14 -4.476053e-02
3.416809e-01 -4.122941e-15 -4.453877e-02
3.842194e-01 1.595694e-15 -4.425199e-02