# vtk DataFile Version 3.0
vtk output
ASCII
DATASET UNSTRUCTURED_GRID
POINTS 11767 float
0.000000e+00 0.000000e+00 0.000000e+00
1.460000e-02 0.000000e+00 0.000000e+00
2.920000e-02 0.000000e+00 0.000000e+00
4.380000e-02 0.000000e+00 0.000000e+00
5.840000e-02 0.000000e+00 0.000000e+00
7.300000e-02 0.000000e+00 0.000000e+00
8.760000e-02 0.000000e+00 0.000000e+00
1.022000e-01 0.000000e+00 0.000000e+00
1.168000e-01 0.000000e+00 0.000000e+00
1.314000e-01 0.000000e+00 0.000000e+00
1.460000e-01 0.000000e+00 0.000000e+00
1.606000e-01 0.000000e+00 0.000000e+00
1.752000e-01 0.000000e+00 0.000000e+00
1.898000e-01 0.000000e+00 0.000000e+00
2.044000e-01 0.000000e+00 0.000000e+00
2.190000e-01 0.000000e+00 0.000000e+00
2.336000e-01 0.000000e+00 0.000000e+00
2.482000e-01 0.000000e+00 0.000000e+00
2.628000e-01 0.000000e+00 0.000000e+00
2.774000e-01 0.000000e+00 0.000000e+00
2.920000e-01 0.000000e+00 0.000000e+00
3.066000e-01 0.000000e+00 0.000000e+00
3.212000e-01 0.000000e+00 0.000000e+00
3.358000e-01 0.000000e+00 0.000000e+00
3.504000e-01 0.000000e+00 0.000000e+00
3.650000e-01 0.000000e+00 0.000000e+00
3.796000e-01 0.000000e+00 0.000000e+00
3.942000e-01 0.000000e+00 0.000000e+00
4.088000e-01 0.000000e+00 0.000000e+00
4.234000e-01 0.000000e+00 0.000000e+00
4.380000e-01 0.000000e+00 0.000000e+00
4.526000e-01 0.000000e+00 0.000000e+00
4.672000e-01 0.000000e+00 0.000000e+00
4.818000e-01 0.000000e+00 0.000000e+00
4.964000e-01 0.000000e+00 0.000000e+00
5.110000e-01 0.000000e+00 0.000000e+00
5.256000e-01 0.000000e+00 0.000000e+00
5.402000e-01 0.000000e+00 0.000000e+00
5.548000e-01 0.000000e+00 0.000000e+00
5.694000e-01 0.000000e+00 0.000000e+00
5.840000e-01 0.000000e+00 0.000000e+00
0.000000e+00 1.460000e-02 0.000000e+00
1.460000e-02 1.460000e-02 0.000000e+00
2.920000e-02 1.460000e-02 0.000000e+00
4.380000e-02 1.460000e-02 0.000000e+00
5.840000e-02 1.460000e-02 0.000000e+00
7.300000e-02 1.460000e-02 0.000000e+00
8.760000e-02 1.460000e-02 0.000000e+00
1.022000e-01 1.460000e-02 0.000000e+00
1.168000e-01 1.460000e-02 0.000000e+00
1.314000e-01 1.460000e-02 0.000000e+00
1.460000e-01 1.460000e-02 0.000000e+00
1.606000e-01 1.460000e-02 0.000000e+00
1.752000e-01 1.460000e-02 0.000000e+00
1.898000e-01 1.460000e-02 0.000000e+00
2.044000e-01 1.460000e-02 0.000000e+00
2.190000e-01 1.460000e-02 0.000000e+00
2.336000e-01 1.460000e-02 0.000000e+00
2.482000e-01 1.460000e-02 0.000000e+00
2.628000e-01 1.460000e-02 0.000000e+00
2.774000e-01 1.460000e-02 0.000000e+00
2.920000e-01 1.460000e-02 0.000000e+00
3.066000e-01 1.460000e-02 0.000000e+00
3.212000e-01 1.460000e-02 0.000000e+00
3.358000e-01 1.460000e-02 0.000000e+00
3.504000e-01 1.460000e-02 0.000000e+00
3.650000e-01 1.460000e-02 0.000000e+00
3.796000e-01 1.460000e-02 0.000000e+00
3.942000e-01 1.460000e-02 0.000000e+00
4.088000e-01 1.460000e-02 0.000000e+00
4.234000e-01 1.460000e-02 0.000000e+00
4.380000e-01 1.460000e-02 0.000000e+00
4.526000e-01 1.460000e-02 0.000000e+00
4.672000e-01 1.460000e-02 0.000000e+00
4.818000e-01 1.460000e-02 0.000000e+00
4.964000e-01 1.460000e-02 0.000000e+00
5.110000e-01 1.460000e-02 0.000000e+00
5.256000e-01 1.460000e-02 0.000000e+00
5.402000e-01 1.460000e-02 0.000000e+00
5.548000e-01 1.460000e-02 0.000000e+00
5.694000e-01 1.460000e-02 0.000000e+00
5.840000e-01 1.460000e-02 0.000000e+00
0.000000e+00 2.920000e-02 0.000000e+00
1.460000e-02 2.920000e-02 0.000000e+00
2.920000e-02 2.920000e-02 0.000000e+00
4.380000e-02 2.920000e-02 0.000000e+00
5.840000e-02 2.920000e-02 0.000000e+00
7.300000e-02 2.920000e-02 0.000000e+00
8.760000e-02 2.920000e-02 0.000000e+00
1.022000e-01 2.920000e-02 0.000000e+00
1.168000e-01 2.920000e-02 0.000000e+00
1.314000e-01 2.920000e-02 0.000000e+00
1.460000e-01 2.920000e-02 0.000000e+00
1.606000e-01 2.920000e-02 0.000000e+00
1.752000e-01 2.920000e-02 0.000000e+00
1.898000e-01 2.920000e-02 0.000000e+00
2.044000e-01 2.920000e-02 0.000000e+00
2.190000e-01 2.920000e-02 0.000000e+00
2.336000e-01 2.920000e-02 0.000000e+00
2.482000e-01 2.920000e-02 0.000000e+00
2.628000e-01 2.920000e-02 0.000000e+00
2.774000e-01 2.920000e-02 0.000000e+00
2.920000e-01 2.920000e-02 0.000000e+00
3.066000e-01 2.920000e-02 0.000000e+00
3.212000e-01 2.920000e-02 0.000000e+00
3.358000e-01 2.920000e-02 0.000000e+00
3.504000e-01 2.920000e-02 0.000000e+00
3.650000e-01 2.920000e-02 0.000000e+00
3.796000e-01 2.920000e-02 0.000000e+00
3.942000e-01 2.920000e-02 0.000000e+00
4.088000e-01 2.920000e-02 0.000000e+00
4.234000e-01 2.920000e-02 0.000000e+00
4.380000e-01 2.920000e-02 0.000000e+00
4.526000e-01 2.920000e-02 0.000000e+00
4.672000e-01 2.920000e-02 0.000000e+00
4.818000e-01 2.920000e-02 0.000000e+00
4.964000e-01 2.920000e-02 0.000000e+00
5.110000e-01 2.920000e-02 0.000000e+00
5.256000e-01 2.920000e-02 0.000000e+00
5.402000e-01 2.920000e-02 0.000000e+00
5.548000e-01 2.920000e-02 0.000000e+00
5.694000e-01 2.920000e-02 0.000000e+00
5.840000e-01 2.920000e-02 0.000000e+00
0.000000e+00 4.380000e-02 0.000000e+00
1.460000e-02 4.380000e-02 0.000000e+00
2.920000e-02 4.380000e-02 0.000000e+00
4.380000e-02 4.380000e-02 0.000000e+00
5.840000e-02 4.380000e-02 0.000000e+00
7.300000e-02 4.380000e-02 0.000000e+00
8.760000e-02 4.380000e-02 0.000000e+00
1.022000e-01 4.380000e-02 0.000000e+00
1.168000e-01 4.380000e-02 0.000000e+00
1.314000e-01 4.380000e-02 0.000000e+00
1.460000e-01 4.380000e-02 0.000000e+00
1.606000e-01 4.380000e-02 0.000000e+00
1.752000e-01 4.380000e-02 0.000000e+00
1.898000e-01 4.380000e-02 0.000000e+00
2.044000e-01 4.380000e-02 0.000000e+00
2.190000e-01 4.380000e-02 0.000000e+00
2.336000e-01 4.380000e-02 0.000000e+00
2.482000e-01 4.380000e-02 0.000000e+00
2.628000e-01 4.380000e-02 0.000000e+00
2.774000e-01 4.380000e-02 0.000000e+00
2.920000e-01 4.380000e-02 0.000000e+00
3.066000e-01 4.380000e-02 0.000000e+00
3.212000e-01 4.380000e-02 0.000000e+00
3.358000e-01 4.380000e-02 0.000000e+00
3.504000e-01 4.380000e-02 0.000000e+00
3.650000e-01 4.380000e-02 0.000000e+00
3.796000e-01 4.380000e-02 0.000000e+00
3.942000e-01 4.380000e-02 0.000000e+00
4.088000e-01 4.380000e-02 0.000000e+00
4.234000e-01 4.380000e-02 0.000000e+00
4.380000e-01 4.380000e-02 0.000000e+00
4.526000e-01 4.380000e-02 0.000000e+00
4.672000e-01 4.380000e-02 0.000000e+00
4.818000e-01 4.380000e-02 0.000000e+00
4.964000e-01 4.380000e-02 0.000000e+00
5.110000e-01 4.380000e-02 0.000000e+00
5.256000e-01 4.380000e-02 0.000000e+00
5.402000e-01 4.380000e-02 0.000000e+00
5.548000e-01 4.380000e-02 0.000000e+00
5.694000e-01 4.380000e-02 0.000000e+00
5.840000e-01 4.380000e-02 0.000000e+00
0.000000e+00 5.840000e-02 0.000000e+00
1.460000e-02 5.840000e-02 0.000000e+00
2.920000e-02 5.840000e-02 0.000000e+00
4.380000e-02 5.840000e-02 0.000000e+00
5.840000e-02 5.840000e-02 0.000000e+00
7.300000e-02 5.840000e-02 0.000000e+00
8.760000e-02 5.840000e-02 0.000000e+00
1.022000e-01 5.840000e-02 0.000000e+00
1.168000e-01 5.840000e-02 0.000000e+00
1.314000e-01 5.840000e-02 0.000000e+00
1.460000e-01 5.840000e-02 0.000000e+00
1.606000e-01 5.840000e-02 0.000000e+00
1.752000e-01 5.840000e-02 0.000000e+00
1.898000e-01 5.840000e-02 0.000000e+00
2.044000e-01 5.840000e-02 0.000000e+00
2.190000e-01 5.840000e-02 0.000000e+00
2.336000e-01 5.840000e-02 0.000000e+00
2.482000e-01 5.840000e-02 0.000000e+00
2.628000e-01 5.840000e-02 0.000000e+00
2.774000e-01 5.840000e-02 0.000000e+00
2.920000e-01 5.840000e-02 0.000000e+00
3.066000e-01 5.840000e-02 0.000000e+00
3.212000e-01 5.840000e-02 0.000000e+00
3.358000e-01 5.840000e-02 0.000000e+00
3.504000e-01 5.840000e-02 0.000000e+00
3.650000e-01 5.840000e-02 0.000000e+00
3.796000e-01 5.840000e-02 0.000000e+00
3.942000e-01 5.840000e-02 0.000000e+00
4.088000e-01 5.840000e-02 0.000000e+00
4.234000e-01 5.840000e-02 0.000000e+00
4.380000e-01 5.840000e-02 0.000000e+00
4.526000e-01 5.840000e-02 0.000000e+00
4.672000e-01 5.840000e-02 0.000000e+00
4.818000e-01 5.840000e-02 0.000000e+00
4.964000e-01 5.840000e-02 0.000000e+00
5.110000e-01 5.840000e-02 0.000000e+00
5.256000e-01 5.840000e-02 0.000000e+00
5.402000e-01 5.840000e-02 0.000000e+00
5.548000e-01 5.840000e-02 0.000000e+00
5.694000e-01 5.840000e-02 0.000000e+00
5.840000e-01 5.840000e-02 0.000000e+00
0.000000e+00 7.300000e-02 0.000000e+00
1.460000e-02 7.300000e-02 0.000000e+00
2.920000e-02 7.300000e-02 0.000000e+00
4.380000e-02 7.300000e-02 0.000000e+00
5.840000e-02 7.300000e-02 0.000000e+00
7.300000e-02 7.300000e-02 0.000000e+00
8.760000e-02 7.300000e-02 0.000000e+00
1.022000e-01 7.300000e-02 0.000000e+00
1.168000e-01 7.300000e-02 0.000000e+00
1.314000e-01 7.300000e-02 0.000000e+00
1.460000e-01 7.300000e-02 0.000000e+00
1.606000e-01 7.300000e-02 0.000000e+00
1.752000e-01 7.300000e-02 0.000000e+00
1.898000e-01 7.300000e-02 0.000000e+00
2.044000e-01 7.300000e-02 0.000000e+00
2.190000e-01 7.300000e-02 0.000000e+00
2.336000e-01 7.300000e-02 0.000000e+00
2.482000e-01 7.300000e-02 0.000000e+00
2.628000e-01 7.300000e-02 0.000000e+00
2.774000e-01 7.300000e-02 0.000000e+00
2.920000e-01 7.300000e-02 0.000000e+00
3.066000e-01 7.300000e-02 0.000000e+00
3.212000e-01 7.300000e-02 0.000000e+00
3.358000e-01 7.300000e-02 0.000000e+00
3.504000e-01 7.300000e-02 0.000000e+00
3.650000e-01 7.300000e-02 0.000000e+00
3.796000e-01 7.300000e-02 0.000000e+00
3.942000e-01 7.300000e-02 0.000000e+00
4.088000e-01 7.300000e-02 0.000000e+00
4.234000e-01 7.300000e-02 0.000000e+00
4.380000e-01 7.300000e-02 0.000000e+00
4.526000e-01 7.300000e-02 0.000000e+00
4.672000e-01 7.300000e-02 0.000000e+00
4.818000e-01 7.300000e-02 0.000000e+00
4.964000e-01 7.300000e-02 0.000000e+00
5.110000e-01 7.300000e-02 0.000000e+00
5.256000e-01 7.300000e-02 0.000000e+00
5.402000e-01 7.300000e-02 0.000000e+00
5.548000e-01 7.300000e-02 0.000000e+00
5.694000e-01 7.300000e-02 0.000000e+00
5.840000e-01 7.300000e-02 0.000000e+00
0.000000e+00 8.760000e-02 0.000000e+00
1.460000e-02 8.760000e-02 0.000000e+00
2.920000e-02 8.760000e-02 0.000000e+00
4.380000e-02 8.760000e-02 0.000000e+00
5.840000e-02 8.760000e-02 0.000000e+00
7.300000e-02 8.760000e-02 0.000000e+00
8.760000e-02 8.760000e-02 0.000000e+00
1.022000e-01 8.760000e-02 0.000000e+00
[...]
POINT_DATA 11767
VECTORS Velocity float
0.000000e+00 0.000000e+00 0.000000e+00
4.219190e-02 0.000000e+00 0.000000e+00
7.279666e-02 0.000000e+00 0.000000e+00
9.860475e-02 0.000000e+00 0.000000e+00
1.210596e-01 0.000000e+00 0.000000e+00
1.410492e-01 0.000000e+00 0.000000e+00
1.581592e-01 0.000000e+00 0.000000e+00
1.725987e-01 0.000000e+00 0.000000e+00
1.843572e-01 0.000000e+00 0.000000e+00
1.938135e-01 0.000000e+00 0.000000e+00
2.011083e-01 0.000000e+00 0.000000e+00
2.065312e-01 0.000000e+00 0.000000e+00
2.103029e-01 0.000000e+00 0.000000e+00
2.126766e-01 0.000000e+00 0.000000e+00
2.137806e-01 0.000000e+00 0.000000e+00
2.136747e-01 0.000000e+00 0.000000e+00
2.123022e-01 0.000000e+00 0.000000e+00
2.095911e-01 0.000000e+00 0.000000e+00
2.055253e-01 0.000000e+00 0.000000e+00
2.002463e-01 0.000000e+00 0.000000e+00
1.940580e-01 0.000000e+00 0.000000e+00
1.873594e-01 0.000000e+00 0.000000e+00
1.805464e-01 0.000000e+00 0.000000e+00
1.739325e-01 0.000000e+00 0.000000e+00
1.677015e-01 0.000000e+00 0.000000e+00
1.619174e-01 0.000000e+00 0.000000e+00
1.565730e-01 0.000000e+00 0.000000e+00
1.516602e-01 0.000000e+00 0.000000e+00
1.472075e-01 0.000000e+00 0.000000e+00
1.432390e-01 0.000000e+00 0.000000e+00
1.397747e-01 0.000000e+00 0.000000e+00
1.365812e-01 0.000000e+00 0.000000e+00
1.332840e-01 0.000000e+00 0.000000e+00
1.290282e-01 0.000000e+00 0.000000e+00
1.229596e-01 0.000000e+00 0.000000e+00
1.146481e-01 0.000000e+00 0.000000e+00
1.030187e-01 0.000000e+00 0.000000e+00
8.977879e-02 0.000000e+00 0.000000e+00
7.004725e-02 0.000000e+00 0.000000e+00
4.931847e-02 0.000000e+00 0.000000e+00
0.000000e+00 0.000000e+00 0.000000e+00
0.000000e+00 -4.772289e-14 0.000000e+00
4.219190e-02 -1.009648e-14 0.000000e+00
7.279666e-02 -2.858152e-15 0.000000e+00
9.860475e-02 1.448288e-15 0.000000e+00
1.210596e-01 -3.408469e-15 0.000000e+00
1.410492e-01 -2.433477e-14 0.000000e+00
1.581592e-01 9.814378e-15 0.000000e+00
1.725987e-01 -2.986294e-14 0.000000e+00
1.843572e-01 3.370036e-14 0.000000e+00
1.938135e-01 -1.326001e-14 0.000000e+00
2.011083e-01 -5.612545e-15 0.000000e+00
2.065312e-01 2.172035e-15 0.000000e+00
2.103029e-01 -9.951363e-15 0.000000e+00
2.126766e-01 -3.591803e-14 0.000000e+00
2.137806e-01 1.040369e-15 0.000000e+00
2.136747e-01 -5.779768e-14 0.000000e+00
2.123022e-01 -4.064519e-14 0.000000e+00
2.095911e-01 -5.378625e-14 0.000000e+00
2.055253e-01 -7.626765e-14 0.000000e+00
2.002463e-01 -8.689788e-14 0.000000e+00
1.940580e-01 -1.220949e-13 0.000000e+00
1.873594e-01 -1.295432e-13 0.000000e+00
1.805464e-01 -1.599012e-13 0.000000e+00
1.739325e-01 -1.601052e-13 0.000000e+00
1.677015e-01 -1.672536e-13 0.000000e+00
1.619174e-01 -1.475000e-13 0.000000e+00
1.565730e-01 -1.875508e-13 0.000000e+00
1.516602e-01 -1.341056e-13 0.000000e+00
1.472075e-01 -1.637308e-13 0.000000e+00
1.432390e-01 -1.148271e-13 0.000000e+00
1.397747e-01 -1.224017e-13 0.000000e+00
1.365812e-01 -1.070650e-13 0.000000e+00
1.332840e-01 -6.811479e-14 0.000000e+00
1.290282e-01 -3.439125e-14 0.000000e+00
1.229596e-01 -6.127175e-14 0.000000e+00
1.146481e-01 7.406575e-15 0.000000e+00
1.030187e-01 -4.538761e-14 0.000000e+00
8.977879e-02 2.910400e-14 0.000000e+00
7.004725e-02 -5.064658e-14 0.000000e+00
4.931847e-02 4.379263e-14 0.000000e+00
0.000000e+00 -4.458378e-15 0.000000e+00
0.000000e+00 -1.140452e-13 0.000000e+00
4.219190e-02 -9.624060e-16 0.000000e+00
7.279666e-02 -2.059163e-14 0.000000e+00
9.860475e-02 1.360392e-14 0.000000e+00
1.210596e-01 -8.606088e-16 0.000000e+00
1.410492e-01 -2.024552e-14 0.000000e+00
1.581592e-01 3.289346e-14 0.000000e+00
1.725987e-01 -3.401685e-14 0.000000e+00
1.843572e-01 5.457004e-14 0.000000e+00
1.938135e-01 -2.437323e-14 0.000000e+00
2.011083e-01 -1.178354e-14 0.000000e+00
2.065312e-01 -4.935605e-15 0.000000e+00
2.103029e-01 -3.822726e-14 0.000000e+00
2.126766e-01 -6.124587e-14 0.000000e+00
2.137806e-01 -1.803147e-14 0.000000e+00
2.136747e-01 -1.141177e-13 0.000000e+00
2.123022e-01 -1.028600e-13 0.000000e+00
2.095911e-01 -1.092298e-13 0.000000e+00
2.055253e-01 -1.569083e-13 0.000000e+00
2.002463e-01 -1.605852e-13 0.000000e+00
1.940580e-01 -2.126485e-13 0.000000e+00
1.873594e-01 -1.924241e-13 0.000000e+00
1.805464e-01 -2.494761e-13 0.000000e+00
1.739325e-01 -2.310108e-13 0.000000e+00
1.677015e-01 -2.446533e-13 0.000000e+00
1.619174e-01 -2.408190e-13 0.000000e+00
1.565730e-01 -2.639017e-13 0.000000e+00
1.516602e-01 -2.101925e-13 0.000000e+00
1.472075e-01 -2.440375e-13 0.000000e+00
1.432390e-01 -1.818894e-13 0.000000e+00
1.397747e-01 -1.696973e-13 0.000000e+00
1.365812e-01 -1.471028e-13 0.000000e+00
1.332840e-01 -1.044989e-13 0.000000e+00
1.290282e-01 -7.097719e-14 0.000000e+00
1.229596e-01 -9.740681e-14 0.000000e+00
1.146481e-01 -1.463812e-15 0.000000e+00
1.030187e-01 -4.119531e-14 0.000000e+00
8.977879e-02 2.268210e-14 0.000000e+00
7.004725e-02 -2.060594e-14 0.000000e+00
4.931847e-02 -2.856618e-15 0.000000e+00
0.000000e+00 -1.354921e-14 0.000000e+00
0.000000e+00 -5.339564e-14 0.000000e+00
4.219190e-02 2.492534e-14 0.000000e+00
7.279666e-02 -3.786865e-14 0.000000e+00
9.860475e-02 5.073830e-14 0.000000e+00
1.210596e-01 -3.655312e-14 0.000000e+00
1.410492e-01 5.275338e-16 0.000000e+00
1.581592e-01 2.659361e-14 0.000000e+00
1.725987e-01 -1.922692e-14 0.000000e+00
1.843572e-01 5.966292e-14 0.000000e+00
1.938135e-01 -3.135330e-14 0.000000e+00
2.011083e-01 -5.743182e-15 0.000000e+00
2.065312e-01 -5.986215e-15 0.000000e+00
2.103029e-01 -4.322707e-14 0.000000e+00
2.126766e-01 -7.037025e-14 0.000000e+00
2.137806e-01 -3.777630e-14 0.000000e+00
2.136747e-01 -1.281479e-13 0.000000e+00
2.123022e-01 -1.416344e-13 0.000000e+00
2.095911e-01 -1.183996e-13 0.000000e+00
2.055253e-01 -2.124721e-13 0.000000e+00
2.002463e-01 -1.590154e-13 0.000000e+00
1.940580e-01 -2.354610e-13 0.000000e+00
1.873594e-01 -1.918351e-13 0.000000e+00
1.805464e-01 -2.472658e-13 0.000000e+00
1.739325e-01 -2.343087e-13 0.000000e+00
1.677015e-01 -2.336507e-13 0.000000e+00
1.619174e-01 -2.467049e-13 0.000000e+00
1.565730e-01 -2.631581e-13 0.000000e+00
1.516602e-01 -2.192760e-13 0.000000e+00
1.472075e-01 -2.555723e-13 0.000000e+00
1.432390e-01 -1.786137e-13 0.000000e+00
1.397747e-01 -1.789896e-13 0.000000e+00
1.365812e-01 -1.434331e-13 0.000000e+00
1.332840e-01 -1.354837e-13 0.000000e+00
1.290282e-01 -7.345468e-14 0.000000e+00
1.229596e-01 -9.405710e-14 0.000000e+00
1.146481e-01 -8.556423e-15 0.000000e+00
1.030187e-01 -7.332285e-14 0.000000e+00
8.977879e-02 3.098156e-14 0.000000e+00
7.004725e-02 -4.890280e-14 0.000000e+00
4.931847e-02 5.095640e-14 0.000000e+00
0.000000e+00 -7.391200e-14 0.000000e+00
0.000000e+00 -4.310509e-14 0.000000e+00
4.219190e-02 -2.255128e-14 0.000000e+00
7.279666e-02 -3.248822e-14 0.000000e+00
9.860475e-02 3.853598e-14 0.000000e+00
1.210596e-01 -3.336243e-14 0.000000e+00
1.410492e-01 1.983674e-15 0.000000e+00
1.581592e-01 5.162626e-15 0.000000e+00
1.725987e-01 -1.954713e-14 0.000000e+00
1.843572e-01 5.642638e-14 0.000000e+00
1.938135e-01 -4.769113e-14 0.000000e+00
2.011083e-01 2.068070e-16 0.000000e+00
2.065312e-01 3.323854e-15 0.000000e+00
2.103029e-01 -3.356342e-14 0.000000e+00
2.126766e-01 -5.371772e-14 0.000000e+00
2.137806e-01 -2.003951e-14 0.000000e+00
2.136747e-01 -1.090543e-13 0.000000e+00
2.123022e-01 -9.700350e-14 0.000000e+00
2.095911e-01 -1.142574e-13 0.000000e+00
2.055253e-01 -1.605041e-13 0.000000e+00
2.002463e-01 -1.446624e-13 0.000000e+00
1.940580e-01 -1.893763e-13 0.000000e+00
1.873594e-01 -1.688346e-13 0.000000e+00
1.805464e-01 -2.045631e-13 0.000000e+00
1.739325e-01 -1.810480e-13 0.000000e+00
1.677015e-01 -2.098148e-13 0.000000e+00
1.619174e-01 -1.930209e-13 0.000000e+00
1.565730e-01 -2.275233e-13 0.000000e+00
1.516602e-01 -1.688022e-13 0.000000e+00
1.472075e-01 -2.181941e-13 0.000000e+00
1.432390e-01 -1.437314e-13 0.000000e+00
1.397747e-01 -1.606671e-13 0.000000e+00
1.365812e-01 -1.101525e-13 0.000000e+00
1.332840e-01 -1.139165e-13 0.000000e+00
1.290282e-01 -5.098666e-14 0.000000e+00
1.229596e-01 -8.239682e-14 0.000000e+00
1.146481e-01 -9.843638e-15 0.000000e+00
1.030187e-01 -4.311583e-14 0.000000e+00
8.977879e-02 4.603114e-14 0.000000e+00
7.004725e-02 -3.409992e-14 0.000000e+00
4.931847e-02 -1.324298e-14 0.000000e+00
0.000000e+00 -6.579702e-14 0.000000e+00
0.000000e+00 -1.116398e-13 0.000000e+00
4.219190e-02 -5.272692e-14 0.000000e+00
7.279666e-02 -4.696228e-14 0.000000e+00
9.860475e-02 2.114969e-14 0.000000e+00
1.210596e-01 -3.734562e-14 0.000000e+00
1.410492e-01 -9.640836e-15 0.000000e+00
1.581592e-01 2.503969e-15 0.000000e+00
1.725987e-01 -2.900520e-14 0.000000e+00
1.843572e-01 2.808189e-14 0.000000e+00
1.938135e-01 -3.883172e-14 0.000000e+00
2.011083e-01 -7.506927e-15 0.000000e+00
2.065312e-01 -5.811003e-16 0.000000e+00
2.103029e-01 -1.816765e-14 0.000000e+00
2.126766e-01 -1.757250e-14 0.000000e+00
2.137806e-01 -6.919620e-15 0.000000e+00
2.136747e-01 -5.600061e-14 0.000000e+00
2.123022e-01 -4.737045e-14 0.000000e+00
2.095911e-01 -5.989149e-14 0.000000e+00
2.055253e-01 -8.040254e-14 0.000000e+00
2.002463e-01 -8.335459e-14 0.000000e+00
1.940580e-01 -1.056803e-13 0.000000e+00
1.873594e-01 -1.023072e-13 0.000000e+00
1.805464e-01 -1.335229e-13 0.000000e+00
1.739325e-01 -1.121017e-13 0.000000e+00
1.677015e-01 -1.294748e-13 0.000000e+00
1.619174e-01 -1.343973e-13 0.000000e+00
1.565730e-01 -1.246789e-13 0.000000e+00
1.516602e-01 -1.241940e-13 0.000000e+00
1.472075e-01 -1.393801e-13 0.000000e+00
1.432390e-01 -9.489462e-14 0.000000e+00
1.397747e-01 -1.030996e-13 0.000000e+00
1.365812e-01 -7.830115e-14 0.000000e+00
1.332840e-01 -8.694096e-14 0.000000e+00
1.290282e-01 -1.535284e-14 0.000000e+00
1.229596e-01 -6.975020e-14 0.000000e+00
1.146481e-01 1.973823e-14 0.000000e+00
1.030187e-01 -7.032059e-14 0.000000e+00
8.977879e-02 7.908961e-14 0.000000e+00
7.004725e-02 -1.061879e-13 0.000000e+00
4.931847e-02 6.882699e-14 0.000000e+00
0.000000e+00 3.098360e-14 0.000000e+00
0.000000e+00 0.000000e+00 0.000000e+00
4.219190e-02 0.000000e+00 0.000000e+00
7.279666e-02 0.000000e+00 0.000000e+00
9.860475e-02 0.000000e+00 0.000000e+00
1.210596e-01 0.000000e+00 0.000000e+00
1.410492e-01 0.000000e+00 0.000000e+00
1.581592e-01 0.000000e+00 0.000000e+00
1.725987e-01 0.000000e+00 0.000000e+00
1.843572e-01 0.000000e+00 0.000000e+00
1.938135e-01 0.000000e+00 0.000000e+00
2.011083e-01 0.000000e+00 0.000000e+00
2.065312e-01 0.000000e+00 0.000000e+00
2.103029e-01 0.000000e+00 0.000000e+00
2.126766e-01 0.000000e+00 0.000000e+00
2.137806e-01 0.000000e+00 0.000000e+00
2.136747e-01 0.000000e+00 0.000000e+00
2.123022e-01 0.000000e+00 0.000000e+00
2.095911e-01 0.000000e+00 0.000000e+00
2.055253e-01 0.000000e+00 0.000000e+00
2.002463e-01 0.000000e+00 0.000000e+00
1.940580e-01 0.000000e+00 0.000000e+00
1.873594e-01 0.000000e+00 0.000000e+00
1.805464e-01 0.000000e+00 0.000000e+00
1.739325e-01 0.000000e+00 0.000000e+00
1.677015e-01 0.000000e+00 0.000000e+00
1.619174e-01 0.000000e+00 0.000000e+00
1.565730e-01 0.000000e+00 0.000000e+00
1.516602e-01 0.000000e+00 0.000000e+00
1.472075e-01 0.000000e+00 0.000000e+00
1.432390e-01 0.000000e+00 0.000000e+00
1.397747e-01 0.000000e+00 0.000000e+00
1.365812e-01 0.000000e+00 0.000000e+00
1.332840e-01 0.000000e+00 0.000000e+00
1.290282e-01 0.000000e+00 0.000000e+00
1.229596e-01 0.000000e+00 0.000000e+00
1.146481e-01 0.000000e+00 0.000000e+00
1.030187e-01 0.000000e+00 0.000000e+00
8.977879e-02 0.000000e+00 0.000000e+00
7.004725e-02 0.000000e+00 0.000000e+00
4.931847e-02 0.000000e+00 0.000000e+00
0.000000e+00 0.000000e+00 0.000000e+00
0.000000e+00 0.000000e+00 -4.074179e-02
2.536271e-02 0.000000e+00 -3.544233e-02
5.128263e-02 0.000000e+00 -2.875877e-02
7.425397e-02 0.000000e+00 -2.566675e-02
9.457766e-02 0.000000e+00 -2.279931e-02
1.118372e-01 0.000000e+00 -2.002597e-02
1.259400e-01 0.000000e+00 -1.705821e-02
1.368240e-01 0.000000e+00 -1.422912e-02
1.447665e-01 0.000000e+00 -1.164022e-02
1.501645e-01 0.000000e+00 -9.382240e-03
1.534012e-01 0.000000e+00 -7.382243e-03
1.549239e-01 0.000000e+00 -5.724678e-03
1.551929e-01 0.000000e+00 -4.374633e-03
1.546247e-01 0.000000e+00 -3.285724e-03
1.535309e-01 0.000000e+00 -2.339688e-03
1.520827e-01 0.000000e+00 -1.421693e-03
1.502845e-01 0.000000e+00 -4.263427e-04
1.480218e-01 0.000000e+00 6.665027e-04
1.450962e-01 0.000000e+00 1.797473e-03
1.413394e-01 0.000000e+00 2.810024e-03
1.367539e-01 0.000000e+00 3.540710e-03
1.315482e-01 0.000000e+00 3.900641e-03
1.260328e-01 0.000000e+00 3.909894e-03
1.204914e-01 0.000000e+00 3.672961e-03
1.150943e-01 0.000000e+00 3.316197e-03
1.099300e-01 0.000000e+00 2.926732e-03
1.050438e-01 0.000000e+00 2.535883e-03
1.004872e-01 0.000000e+00 2.114931e-03
9.631188e-02 0.000000e+00 1.670493e-03
9.252290e-02 0.000000e+00 1.191300e-03
8.907054e-02 0.000000e+00 8.398831e-04
8.569064e-02 0.000000e+00 7.682815e-04
8.211586e-02 0.000000e+00 1.220056e-03
7.786761e-02 0.000000e+00 2.516193e-03
7.266587e-02 0.000000e+00 4.097329e-03
6.607227e-02 0.000000e+00 6.954828e-03
5.755472e-02 0.000000e+00 8.378304e-03
4.766959e-02 0.000000e+00 1.295984e-02
3.492908e-02 0.000000e+00 1.357604e-02
2.068052e-02 0.000000e+00 2.589277e-02
0.000000e+00 0.000000e+00 4.300488e-02
0.000000e+00 2.465161e-15 -4.074179e-02
2.536271e-02 -1.884847e-14 -3.544233e-02
5.128263e-02 -1.927381e-14 -2.875877e-02
7.425397e-02 6.545034e-16 -2.566675e-02
9.457766e-02 -2.299188e-14 -2.279931e-02
1.118372e-01 5.530502e-15 -2.002597e-02
1.259400e-01 -1.674434e-14 -1.705821e-02
1.368240e-01 2.119909e-15 -1.422912e-02
1.447665e-01 -1.577280e-14 -1.164022e-02
1.501645e-01 -4.107027e-15 -9.382240e-03
1.534012e-01 1.243034e-14 -7.382243e-03
1.549239e-01 -8.468629e-15 -5.724678e-03
1.551929e-01 3.114426e-14 -4.374633e-03
1.546247e-01 2.087384e-14 -3.285724e-03
1.535309e-01 -1.252379e-14 -2.339688e-03
1.520827e-01 5.988581e-14 -1.421693e-03
1.502845e-01 4.291755e-14 -4.263427e-04
1.480218e-01 3.825308e-14 6.665027e-04
1.450962e-01 9.107140e-14 1.797473e-03
1.413394e-01 6.735085e-14 2.810024e-03
1.367539e-01 9.163869e-14 3.540710e-03
1.315482e-01 9.400396e-14 3.900641e-03
1.260328e-01 1.057470e-13 3.909894e-03
1.204914e-01 9.853949e-14 3.672961e-03
1.150943e-01 6.615183e-14 3.316197e-03
1.099300e-01 1.005458e-13 2.926732e-03
1.050438e-01 7.003398e-14 2.535883e-03
1.004872e-01 8.366414e-14 2.114931e-03
9.631188e-02 9.198626e-14 1.670493e-03
9.252290e-02 8.686708e-14 1.191300e-03
8.907054e-02 5.895111e-14 8.398831e-04
8.569064e-02 7.649653e-14 7.682815e-04
8.211586e-02 -1.764499e-14 1.220056e-03
7.786761e-02 5.146861e-14 2.516193e-03
7.266587e-02 -9.191307e-16 4.097329e-03
6.607227e-02 5.129329e-14 6.954828e-03
5.755472e-02 -3.229326e-14 8.378304e-03
4.766959e-02 4.443565e-14 1.295984e-02
3.492908e-02 -6.903691e-14 1.357604e-02
2.068052e-02 5.990644e-14 2.589277e-02
0.000000e+00 1.176254e-14 4.300488e-02
0.000000e+00 -6.435746e-15 -4.074179e-02
2.536271e-02 -5.668957e-14 -3.544233e-02
5.128263e-02 -2.248601e-14 -2.875877e-02
7.425397e-02 -2.063235e-14 -2.566675e-02
9.457766e-02 -1.507013e-14 -2.279931e-02
1.118372e-01 6.645400e-15 -2.002597e-02
1.259400e-01 -2.584264e-14 -1.705821e-02
1.368240e-01 -7.739433e-15 -1.422912e-02
1.447665e-01 -1.788385e-14 -1.164022e-02
1.501645e-01 -1.749727e-14 -9.382240e-03
1.534012e-01 2.396777e-14 -7.382243e-03
1.549239e-01 -3.196976e-14 -5.724678e-03
1.551929e-01 5.024896e-14 -4.374633e-03
1.546247e-01 1.828450e-14 -3.285724e-03
1.535309e-01 -3.175604e-14 -2.339688e-03
1.520827e-01 7.033401e-14 -1.421693e-03
1.502845e-01 5.231562e-14 -4.263427e-04
1.480218e-01 2.626598e-14 6.665027e-04
1.450962e-01 1.300442e-13 1.797473e-03
1.413394e-01 7.574809e-14 2.810024e-03
1.367539e-01 1.458879e-13 3.540710e-03
1.315482e-01 1.188826e-13 3.900641e-03
1.260328e-01 1.419983e-13 3.909894e-03
1.204914e-01 1.378138e-13 3.672961e-03
1.150943e-01 8.771037e-14 3.316197e-03
1.099300e-01 1.461280e-13 2.926732e-03
1.050438e-01 1.088303e-13 2.535883e-03
1.004872e-01 1.279233e-13 2.114931e-03
9.631188e-02 9.687337e-14 1.670493e-03
9.252290e-02 1.387435e-13 1.191300e-03
8.907054e-02 6.125177e-14 8.398831e-04
8.569064e-02 1.224375e-13 7.682815e-04
8.211586e-02 -8.290414e-16 1.220056e-03
7.786761e-02 5.639332e-14 2.516193e-03
7.266587e-02 4.686713e-14 4.097329e-03
6.607227e-02 6.226242e-14 6.954828e-03
5.755472e-02 -9.634073e-15 8.378304e-03
4.766959e-02 8.096802e-15 1.295984e-02
3.492908e-02 -4.478120e-14 1.357604e-02
2.068052e-02 4.348886e-14 2.589277e-02
0.000000e+00 4.172238e-14 4.300488e-02
0.000000e+00 2.358131e-14 -4.074179e-02
2.536271e-02 -4.541169e-14 -3.544233e-02
5.128263e-02 -2.847891e-14 -2.875877e-02
7.425397e-02 -1.608158e-14 -2.566675e-02
9.457766e-02 -1.688558e-14 -2.279931e-02
1.118372e-01 7.316056e-15 -2.002597e-02
1.259400e-01 -2.411256e-14 -1.705821e-02
1.368240e-01 -3.889102e-15 -1.422912e-02
1.447665e-01 -2.508409e-14 -1.164022e-02
1.501645e-01 -1.699030e-14 -9.382240e-03
1.534012e-01 2.043669e-14 -7.382243e-03
1.549239e-01 -3.375118e-14 -5.724678e-03
1.551929e-01 5.760201e-14 -4.374633e-03
1.546247e-01 -3.958753e-15 -3.285724e-03
1.535309e-01 -3.639448e-14 -2.339688e-03
1.520827e-01 4.717803e-14 -1.421693e-03
1.502845e-01 4.931241e-14 -4.263427e-04
1.480218e-01 -3.525638e-15 6.665027e-04
1.450962e-01 1.417077e-13 1.797473e-03
1.413394e-01 5.485736e-14 2.810024e-03
1.367539e-01 1.549709e-13 3.540710e-03
1.315482e-01 9.801658e-14 3.900641e-03
1.260328e-01 1.378585e-13 3.909894e-03
1.204914e-01 1.416135e-13 3.672961e-03
1.150943e-01 8.869916e-14 3.316197e-03
1.099300e-01 1.407533e-13 2.926732e-03
1.050438e-01 9.914664e-14 2.535883e-03
1.004872e-01 1.366941e-13 2.114931e-03
9.631188e-02 1.031490e-13 1.670493e-03
9.252290e-02 1.341862e-13 1.191300e-03
8.907054e-02 4.472127e-14 8.398831e-04
8.569064e-02 1.414966e-13 7.682815e-04
8.211586e-02 3.225375e-15 1.220056e-03
7.786761e-02 8.581141e-14 2.516193e-03
7.266587e-02 2.333996e-14 4.097329e-03
6.607227e-02 7.452135e-14 6.954828e-03
5.755472e-02 -2.754696e-14 8.378304e-03
4.766959e-02 2.255718e-14 1.295984e-02
3.492908e-02 -6.716391e-14 1.357604e-02
2.068052e-02 4.711997e-14 2.589277e-02
0.000000e+00 2.003108e-14 4.300488e-02
0.000000e+00 -1.459468e-14 -4.074179e-02
2.536271e-02 -4.528698e-14 -3.544233e-02
5.128263e-02 -1.333997e-14 -2.875877e-02
7.425397e-02 -3.059028e-14 -2.566675e-02
9.457766e-02 -1.216882e-14 -2.279931e-02
1.118372e-01 8.903761e-15 -2.002597e-02
1.259400e-01 -1.951347e-14 -1.705821e-02
1.368240e-01 1.155695e-14 -1.422912e-02
1.447665e-01 -2.441461e-14 -1.164022e-02
1.501645e-01 -8.602297e-16 -9.382240e-03
1.534012e-01 2.134795e-14 -7.382243e-03
1.549239e-01 -1.969153e-14 -5.724678e-03
1.551929e-01 4.955495e-14 -4.374633e-03
1.546247e-01 -1.228660e-14 -3.285724e-03
1.535309e-01 -2.148747e-14 -2.339688e-03
1.520827e-01 4.698067e-14 -1.421693e-03
1.502845e-01 4.081725e-14 -4.263427e-04
1.480218e-01 9.025612e-15 6.665027e-04
1.450962e-01 1.335521e-13 1.797473e-03
1.413394e-01 4.627977e-14 2.810024e-03
1.367539e-01 1.408548e-13 3.540710e-03
1.315482e-01 8.017976e-14 3.900641e-03
1.260328e-01 1.319849e-13 3.909894e-03
1.204914e-01 1.021359e-13 3.672961e-03
1.150943e-01 8.370344e-14 3.316197e-03
1.099300e-01 1.061423e-13 2.926732e-03
1.050438e-01 1.074757e-13 2.535883e-03
1.004872e-01 9.801423e-14 2.114931e-03
9.631188e-02 9.510976e-14 1.670493e-03
9.252290e-02 1.169417e-13 1.191300e-03
8.907054e-02 6.309027e-14 8.398831e-04
8.569064e-02 1.066875e-13 7.682815e-04
8.211586e-02 7.275816e-15 1.220056e-03
7.786761e-02 4.975011e-14 2.516193e-03
7.266587e-02 3.425769e-14 4.097329e-03
6.607227e-02 4.356801e-14 6.954828e-03
5.755472e-02 2.208028e-15 8.378304e-03
4.766959e-02 -2.625102e-14 1.295984e-02
3.492908e-02 -2.383730e-14 1.357604e-02
2.068052e-02 5.180041e-14 2.589277e-02
0.000000e+00 1.583099e-14 4.300488e-02
0.000000e+00 -4.748659e-14 -4.074179e-02
2.536271e-02 -5.958222e-14 -3.544233e-02
5.128263e-02 1.034290e-16 -2.875877e-02
7.425397e-02 -2.120940e-14 -2.566675e-02
9.457766e-02 -1.053398e-14 -2.279931e-02
1.118372e-01 5.187898e-15 -2.002597e-02
1.259400e-01 -1.715549e-14 -1.705821e-02
1.368240e-01 3.222514e-16 -1.422912e-02
1.447665e-01 -1.377947e-14 -1.164022e-02
1.501645e-01 -5.996690e-15 -9.382240e-03
1.534012e-01 8.918832e-15 -7.382243e-03