# vtk DataFile Version 3.0
vtk output
ASCII
DATASET UNSTRUCTURED_GRID
POINTS 11767 float
0.000000e+00 0.000000e+00 0.000000e+00
1.460000e-02 0.000000e+00 0.000000e+00
2.920000e-02 0.000000e+00 0.000000e+00
4.380000e-02 0.000000e+00 0.000000e+00
5.840000e-02 0.000000e+00 0.000000e+00
7.300000e-02 0.000000e+00 0.000000e+00
8.760000e-02 0.000000e+00 0.000000e+00
1.022000e-01 0.000000e+00 0.000000e+00
1.168000e-01 0.000000e+00 0.000000e+00
1.314000e-01 0.000000e+00 0.000000e+00
1.460000e-01 0.000000e+00 0.000000e+00
1.606000e-01 0.000000e+00 0.000000e+00
1.752000e-01 0.000000e+00 0.000000e+00
1.898000e-01 0.000000e+00 0.000000e+00
2.044000e-01 0.000000e+00 0.000000e+00
2.190000e-01 0.000000e+00 0.000000e+00
2.336000e-01 0.000000e+00 0.000000e+00
2.482000e-01 0.000000e+00 0.000000e+00
2.628000e-01 0.000000e+00 0.000000e+00
2.774000e-01 0.000000e+00 0.000000e+00
2.920000e-01 0.000000e+00 0.000000e+00
3.066000e-01 0.000000e+00 0.000000e+00
3.212000e-01 0.000000e+00 0.000000e+00
3.358000e-01 0.000000e+00 0.000000e+00
3.504000e-01 0.000000e+00 0.000000e+00
3.650000e-01 0.000000e+00 0.000000e+00
3.796000e-01 0.000000e+00 0.000000e+00
3.942000e-01 0.000000e+00 0.000000e+00
4.088000e-01 0.000000e+00 0.000000e+00
4.234000e-01 0.000000e+00 0.000000e+00
4.380000e-01 0.000000e+00 0.000000e+00
4.526000e-01 0.000000e+00 0.000000e+00
4.672000e-01 0.000000e+00 0.000000e+00
4.818000e-01 0.000000e+00 0.000000e+00
4.964000e-01 0.000000e+00 0.000000e+00
5.110000e-01 0.000000e+00 0.000000e+00
5.256000e-01 0.000000e+00 0.000000e+00
5.402000e-01 0.000000e+00 0.000000e+00
5.548000e-01 0.000000e+00 0.000000e+00
5.694000e-01 0.000000e+00 0.000000e+00
5.840000e-01 0.000000e+00 0.000000e+00
0.000000e+00 1.460000e-02 0.000000e+00
1.460000e-02 1.460000e-02 0.000000e+00
2.920000e-02 1.460000e-02 0.000000e+00
4.380000e-02 1.460000e-02 0.000000e+00
5.840000e-02 1.460000e-02 0.000000e+00
7.300000e-02 1.460000e-02 0.000000e+00
8.760000e-02 1.460000e-02 0.000000e+00
1.022000e-01 1.460000e-02 0.000000e+00
1.168000e-01 1.460000e-02 0.000000e+00
1.314000e-01 1.460000e-02 0.000000e+00
1.460000e-01 1.460000e-02 0.000000e+00
1.606000e-01 1.460000e-02 0.000000e+00
1.752000e-01 1.460000e-02 0.000000e+00
1.898000e-01 1.460000e-02 0.000000e+00
2.044000e-01 1.460000e-02 0.000000e+00
2.190000e-01 1.460000e-02 0.000000e+00
2.336000e-01 1.460000e-02 0.000000e+00
2.482000e-01 1.460000e-02 0.000000e+00
2.628000e-01 1.460000e-02 0.000000e+00
2.774000e-01 1.460000e-02 0.000000e+00
2.920000e-01 1.460000e-02 0.000000e+00
3.066000e-01 1.460000e-02 0.000000e+00
3.212000e-01 1.460000e-02 0.000000e+00
3.358000e-01 1.460000e-02 0.000000e+00
3.504000e-01 1.460000e-02 0.000000e+00
3.650000e-01 1.460000e-02 0.000000e+00
3.796000e-01 1.460000e-02 0.000000e+00
3.942000e-01 1.460000e-02 0.000000e+00
4.088000e-01 1.460000e-02 0.000000e+00
4.234000e-01 1.460000e-02 0.000000e+00
4.380000e-01 1.460000e-02 0.000000e+00
4.526000e-01 1.460000e-02 0.000000e+00
4.672000e-01 1.460000e-02 0.000000e+00
4.818000e-01 1.460000e-02 0.000000e+00
4.964000e-01 1.460000e-02 0.000000e+00
5.110000e-01 1.460000e-02 0.000000e+00
5.256000e-01 1.460000e-02 0.000000e+00
5.402000e-01 1.460000e-02 0.000000e+00
5.548000e-01 1.460000e-02 0.000000e+00
5.694000e-01 1.460000e-02 0.000000e+00
5.840000e-01 1.460000e-02 0.000000e+00
0.000000e+00 2.920000e-02 0.000000e+00
1.460000e-02 2.920000e-02 0.000000e+00
2.920000e-02 2.920000e-02 0.000000e+00
4.380000e-02 2.920000e-02 0.000000e+00
5.840000e-02 2.920000e-02 0.000000e+00
7.300000e-02 2.920000e-02 0.000000e+00
8.760000e-02 2.920000e-02 0.000000e+00
1.022000e-01 2.920000e-02 0.000000e+00
1.168000e-01 2.920000e-02 0.000000e+00
1.314000e-01 2.920000e-02 0.000000e+00
1.460000e-01 2.920000e-02 0.000000e+00
1.606000e-01 2.920000e-02 0.000000e+00
1.752000e-01 2.920000e-02 0.000000e+00
1.898000e-01 2.920000e-02 0.000000e+00
2.044000e-01 2.920000e-02 0.000000e+00
2.190000e-01 2.920000e-02 0.000000e+00
2.336000e-01 2.920000e-02 0.000000e+00
2.482000e-01 2.920000e-02 0.000000e+00
2.628000e-01 2.920000e-02 0.000000e+00
2.774000e-01 2.920000e-02 0.000000e+00
2.920000e-01 2.920000e-02 0.000000e+00
3.066000e-01 2.920000e-02 0.000000e+00
3.212000e-01 2.920000e-02 0.000000e+00
3.358000e-01 2.920000e-02 0.000000e+00
3.504000e-01 2.920000e-02 0.000000e+00
3.650000e-01 2.920000e-02 0.000000e+00
3.796000e-01 2.920000e-02 0.000000e+00
3.942000e-01 2.920000e-02 0.000000e+00
4.088000e-01 2.920000e-02 0.000000e+00
4.234000e-01 2.920000e-02 0.000000e+00
4.380000e-01 2.920000e-02 0.000000e+00
4.526000e-01 2.920000e-02 0.000000e+00
4.672000e-01 2.920000e-02 0.000000e+00
4.818000e-01 2.920000e-02 0.000000e+00
4.964000e-01 2.920000e-02 0.000000e+00
5.110000e-01 2.920000e-02 0.000000e+00
5.256000e-01 2.920000e-02 0.000000e+00
5.402000e-01 2.920000e-02 0.000000e+00
5.548000e-01 2.920000e-02 0.000000e+00
5.694000e-01 2.920000e-02 0.000000e+00
5.840000e-01 2.920000e-02 0.000000e+00
0.000000e+00 4.380000e-02 0.000000e+00
1.460000e-02 4.380000e-02 0.000000e+00
2.920000e-02 4.380000e-02 0.000000e+00
4.380000e-02 4.380000e-02 0.000000e+00
5.840000e-02 4.380000e-02 0.000000e+00
7.300000e-02 4.380000e-02 0.000000e+00
8.760000e-02 4.380000e-02 0.000000e+00
1.022000e-01 4.380000e-02 0.000000e+00
1.168000e-01 4.380000e-02 0.000000e+00
1.314000e-01 4.380000e-02 0.000000e+00
1.460000e-01 4.380000e-02 0.000000e+00
1.606000e-01 4.380000e-02 0.000000e+00
1.752000e-01 4.380000e-02 0.000000e+00
1.898000e-01 4.380000e-02 0.000000e+00
2.044000e-01 4.380000e-02 0.000000e+00
2.190000e-01 4.380000e-02 0.000000e+00
2.336000e-01 4.380000e-02 0.000000e+00
2.482000e-01 4.380000e-02 0.000000e+00
2.628000e-01 4.380000e-02 0.000000e+00
2.774000e-01 4.380000e-02 0.000000e+00
2.920000e-01 4.380000e-02 0.000000e+00
3.066000e-01 4.380000e-02 0.000000e+00
3.212000e-01 4.380000e-02 0.000000e+00
3.358000e-01 4.380000e-02 0.000000e+00
3.504000e-01 4.380000e-02 0.000000e+00
3.650000e-01 4.380000e-02 0.000000e+00
3.796000e-01 4.380000e-02 0.000000e+00
3.942000e-01 4.380000e-02 0.000000e+00
4.088000e-01 4.380000e-02 0.000000e+00
4.234000e-01 4.380000e-02 0.000000e+00
4.380000e-01 4.380000e-02 0.000000e+00
4.526000e-01 4.380000e-02 0.000000e+00
4.672000e-01 4.380000e-02 0.000000e+00
4.818000e-01 4.380000e-02 0.000000e+00
4.964000e-01 4.380000e-02 0.000000e+00
5.110000e-01 4.380000e-02 0.000000e+00
5.256000e-01 4.380000e-02 0.000000e+00
5.402000e-01 4.380000e-02 0.000000e+00
5.548000e-01 4.380000e-02 0.000000e+00
5.694000e-01 4.380000e-02 0.000000e+00
5.840000e-01 4.380000e-02 0.000000e+00
0.000000e+00 5.840000e-02 0.000000e+00
1.460000e-02 5.840000e-02 0.000000e+00
2.920000e-02 5.840000e-02 0.000000e+00
4.380000e-02 5.840000e-02 0.000000e+00
5.840000e-02 5.840000e-02 0.000000e+00
7.300000e-02 5.840000e-02 0.000000e+00
8.760000e-02 5.840000e-02 0.000000e+00
1.022000e-01 5.840000e-02 0.000000e+00
1.168000e-01 5.840000e-02 0.000000e+00
1.314000e-01 5.840000e-02 0.000000e+00
1.460000e-01 5.840000e-02 0.000000e+00
1.606000e-01 5.840000e-02 0.000000e+00
1.752000e-01 5.840000e-02 0.000000e+00
1.898000e-01 5.840000e-02 0.000000e+00
2.044000e-01 5.840000e-02 0.000000e+00
2.190000e-01 5.840000e-02 0.000000e+00
2.336000e-01 5.840000e-02 0.000000e+00
2.482000e-01 5.840000e-02 0.000000e+00
2.628000e-01 5.840000e-02 0.000000e+00
2.774000e-01 5.840000e-02 0.000000e+00
2.920000e-01 5.840000e-02 0.000000e+00
3.066000e-01 5.840000e-02 0.000000e+00
3.212000e-01 5.840000e-02 0.000000e+00
3.358000e-01 5.840000e-02 0.000000e+00
3.504000e-01 5.840000e-02 0.000000e+00
3.650000e-01 5.840000e-02 0.000000e+00
3.796000e-01 5.840000e-02 0.000000e+00
3.942000e-01 5.840000e-02 0.000000e+00
4.088000e-01 5.840000e-02 0.000000e+00
4.234000e-01 5.840000e-02 0.000000e+00
4.380000e-01 5.840000e-02 0.000000e+00
4.526000e-01 5.840000e-02 0.000000e+00
4.672000e-01 5.840000e-02 0.000000e+00
4.818000e-01 5.840000e-02 0.000000e+00
4.964000e-01 5.840000e-02 0.000000e+00
5.110000e-01 5.840000e-02 0.000000e+00
5.256000e-01 5.840000e-02 0.000000e+00
5.402000e-01 5.840000e-02 0.000000e+00
5.548000e-01 5.840000e-02 0.000000e+00
5.694000e-01 5.840000e-02 0.000000e+00
5.840000e-01 5.840000e-02 0.000000e+00
0.000000e+00 7.300000e-02 0.000000e+00
1.460000e-02 7.300000e-02 0.000000e+00
2.920000e-02 7.300000e-02 0.000000e+00
4.380000e-02 7.300000e-02 0.000000e+00
5.840000e-02 7.300000e-02 0.000000e+00
7.300000e-02 7.300000e-02 0.000000e+00
8.760000e-02 7.300000e-02 0.000000e+00
1.022000e-01 7.300000e-02 0.000000e+00
1.168000e-01 7.300000e-02 0.000000e+00
1.314000e-01 7.300000e-02 0.000000e+00
1.460000e-01 7.300000e-02 0.000000e+00
1.606000e-01 7.300000e-02 0.000000e+00
1.752000e-01 7.300000e-02 0.000000e+00
1.898000e-01 7.300000e-02 0.000000e+00
2.044000e-01 7.300000e-02 0.000000e+00
2.190000e-01 7.300000e-02 0.000000e+00
2.336000e-01 7.300000e-02 0.000000e+00
2.482000e-01 7.300000e-02 0.000000e+00
2.628000e-01 7.300000e-02 0.000000e+00
2.774000e-01 7.300000e-02 0.000000e+00
2.920000e-01 7.300000e-02 0.000000e+00
3.066000e-01 7.300000e-02 0.000000e+00
3.212000e-01 7.300000e-02 0.000000e+00
3.358000e-01 7.300000e-02 0.000000e+00
3.504000e-01 7.300000e-02 0.000000e+00
3.650000e-01 7.300000e-02 0.000000e+00
3.796000e-01 7.300000e-02 0.000000e+00
3.942000e-01 7.300000e-02 0.000000e+00
4.088000e-01 7.300000e-02 0.000000e+00
4.234000e-01 7.300000e-02 0.000000e+00
4.380000e-01 7.300000e-02 0.000000e+00
4.526000e-01 7.300000e-02 0.000000e+00
4.672000e-01 7.300000e-02 0.000000e+00
4.818000e-01 7.300000e-02 0.000000e+00
4.964000e-01 7.300000e-02 0.000000e+00
5.110000e-01 7.300000e-02 0.000000e+00
5.256000e-01 7.300000e-02 0.000000e+00
5.402000e-01 7.300000e-02 0.000000e+00
5.548000e-01 7.300000e-02 0.000000e+00
5.694000e-01 7.300000e-02 0.000000e+00
5.840000e-01 7.300000e-02 0.000000e+00
0.000000e+00 8.760000e-02 0.000000e+00
1.460000e-02 8.760000e-02 0.000000e+00
2.920000e-02 8.760000e-02 0.000000e+00
4.380000e-02 8.760000e-02 0.000000e+00
5.840000e-02 8.760000e-02 0.000000e+00
7.300000e-02 8.760000e-02 0.000000e+00
8.760000e-02 8.760000e-02 0.000000e+00
1.022000e-01 8.760000e-02 0.000000e+00
[...]
POINT_DATA 11767
VECTORS Velocity float
0.000000e+00 0.000000e+00 0.000000e+00
8.114089e-03 0.000000e+00 0.000000e+00
8.688290e-03 0.000000e+00 0.000000e+00
7.769551e-03 0.000000e+00 0.000000e+00
6.810762e-03 0.000000e+00 0.000000e+00
7.076900e-03 0.000000e+00 0.000000e+00
9.068030e-03 0.000000e+00 0.000000e+00
1.273045e-02 0.000000e+00 0.000000e+00
1.744821e-02 0.000000e+00 0.000000e+00
2.275474e-02 0.000000e+00 0.000000e+00
2.811515e-02 0.000000e+00 0.000000e+00
3.358307e-02 0.000000e+00 0.000000e+00
3.931762e-02 0.000000e+00 0.000000e+00
4.532734e-02 0.000000e+00 0.000000e+00
5.095083e-02 0.000000e+00 0.000000e+00
5.549071e-02 0.000000e+00 0.000000e+00
5.819321e-02 0.000000e+00 0.000000e+00
5.876464e-02 0.000000e+00 0.000000e+00
5.739935e-02 0.000000e+00 0.000000e+00
5.503588e-02 0.000000e+00 0.000000e+00
5.263733e-02 0.000000e+00 0.000000e+00
5.105147e-02 0.000000e+00 0.000000e+00
5.045301e-02 0.000000e+00 0.000000e+00
5.069067e-02 0.000000e+00 0.000000e+00
5.126896e-02 0.000000e+00 0.000000e+00
5.204347e-02 0.000000e+00 0.000000e+00
5.288060e-02 0.000000e+00 0.000000e+00
5.399628e-02 0.000000e+00 0.000000e+00
5.533911e-02 0.000000e+00 0.000000e+00
5.714982e-02 0.000000e+00 0.000000e+00
5.919547e-02 0.000000e+00 0.000000e+00
6.143780e-02 0.000000e+00 0.000000e+00
6.329806e-02 0.000000e+00 0.000000e+00
6.428682e-02 0.000000e+00 0.000000e+00
6.423069e-02 0.000000e+00 0.000000e+00
6.284864e-02 0.000000e+00 0.000000e+00
6.005360e-02 0.000000e+00 0.000000e+00
5.640595e-02 0.000000e+00 0.000000e+00
4.741130e-02 0.000000e+00 0.000000e+00
3.678197e-02 0.000000e+00 0.000000e+00
0.000000e+00 0.000000e+00 0.000000e+00
0.000000e+00 -4.492475e-14 0.000000e+00
8.114089e-03 2.941953e-15 0.000000e+00
8.688290e-03 4.949814e-15 0.000000e+00
7.769551e-03 9.415460e-15 0.000000e+00
6.810762e-03 -1.014942e-14 0.000000e+00
7.076900e-03 1.326498e-14 0.000000e+00
9.068030e-03 -7.589872e-15 0.000000e+00
1.273045e-02 2.622700e-14 0.000000e+00
1.744821e-02 1.886272e-14 0.000000e+00
2.275474e-02 1.417628e-14 0.000000e+00
2.811515e-02 4.329503e-14 0.000000e+00
3.358307e-02 -1.673092e-14 0.000000e+00
3.931762e-02 7.065970e-14 0.000000e+00
4.532734e-02 -2.962943e-15 0.000000e+00
5.095083e-02 6.479951e-15 0.000000e+00
5.549071e-02 4.872206e-14 0.000000e+00
5.819321e-02 9.323577e-15 0.000000e+00
5.876464e-02 6.055886e-14 0.000000e+00
5.739935e-02 5.868398e-14 0.000000e+00
5.503588e-02 4.201052e-14 0.000000e+00
5.263733e-02 8.376663e-14 0.000000e+00
5.105147e-02 4.053460e-14 0.000000e+00
5.045301e-02 5.927927e-14 0.000000e+00
5.069067e-02 6.144290e-15 0.000000e+00
5.126896e-02 1.667143e-14 0.000000e+00
5.204347e-02 3.782783e-14 0.000000e+00
5.288060e-02 -6.006680e-14 0.000000e+00
5.399628e-02 5.686069e-14 0.000000e+00
5.533911e-02 -1.994144e-14 0.000000e+00
5.714982e-02 5.826547e-15 0.000000e+00
5.919547e-02 -9.751051e-15 0.000000e+00
6.143780e-02 3.899724e-15 0.000000e+00
6.329806e-02 -4.238124e-14 0.000000e+00
6.428682e-02 4.449646e-14 0.000000e+00
6.423069e-02 -3.698936e-14 0.000000e+00
6.284864e-02 4.857765e-14 0.000000e+00
6.005360e-02 -4.506441e-14 0.000000e+00
5.640595e-02 5.302359e-14 0.000000e+00
4.741130e-02 -7.266721e-14 0.000000e+00
3.678197e-02 6.773169e-14 0.000000e+00
0.000000e+00 1.304354e-14 0.000000e+00
0.000000e+00 -9.883161e-14 0.000000e+00
8.114089e-03 2.274192e-15 0.000000e+00
8.688290e-03 7.957503e-15 0.000000e+00
7.769551e-03 9.683211e-15 0.000000e+00
6.810762e-03 -1.295947e-14 0.000000e+00
7.076900e-03 1.322515e-14 0.000000e+00
9.068030e-03 -6.034839e-15 0.000000e+00
1.273045e-02 1.474096e-14 0.000000e+00
1.744821e-02 3.340394e-14 0.000000e+00
2.275474e-02 -5.444505e-16 0.000000e+00
2.811515e-02 7.445580e-14 0.000000e+00
3.358307e-02 -3.753024e-14 0.000000e+00
3.931762e-02 1.147538e-13 0.000000e+00
4.532734e-02 2.058365e-14 0.000000e+00
5.095083e-02 2.263757e-14 0.000000e+00
5.549071e-02 8.649126e-14 0.000000e+00
5.819321e-02 4.884428e-14 0.000000e+00
5.876464e-02 8.803840e-14 0.000000e+00
5.739935e-02 1.083019e-13 0.000000e+00
5.503588e-02 7.661041e-14 0.000000e+00
5.263733e-02 1.356231e-13 0.000000e+00
5.105147e-02 5.508443e-14 0.000000e+00
5.045301e-02 1.111570e-13 0.000000e+00
5.069067e-02 1.442497e-14 0.000000e+00
5.126896e-02 4.217983e-14 0.000000e+00
5.204347e-02 5.574917e-14 0.000000e+00
5.288060e-02 -2.789943e-14 0.000000e+00
5.399628e-02 6.878378e-14 0.000000e+00
5.533911e-02 -2.415858e-15 0.000000e+00
5.714982e-02 1.203500e-14 0.000000e+00
5.919547e-02 -5.847606e-15 0.000000e+00
6.143780e-02 1.400336e-14 0.000000e+00
6.329806e-02 -2.863204e-14 0.000000e+00
6.428682e-02 2.379125e-14 0.000000e+00
6.423069e-02 -7.931059e-15 0.000000e+00
6.284864e-02 1.420573e-14 0.000000e+00
6.005360e-02 -1.500004e-14 0.000000e+00
5.640595e-02 1.620002e-14 0.000000e+00
4.741130e-02 -2.056306e-14 0.000000e+00
3.678197e-02 3.837522e-14 0.000000e+00
0.000000e+00 -1.025010e-14 0.000000e+00
0.000000e+00 -6.121721e-14 0.000000e+00
8.114089e-03 1.717949e-14 0.000000e+00
8.688290e-03 1.290540e-14 0.000000e+00
7.769551e-03 7.850960e-15 0.000000e+00
6.810762e-03 -1.480984e-14 0.000000e+00
7.076900e-03 1.392033e-14 0.000000e+00
9.068030e-03 -1.030718e-14 0.000000e+00
1.273045e-02 1.462189e-14 0.000000e+00
1.744821e-02 2.818202e-14 0.000000e+00
2.275474e-02 -3.935741e-15 0.000000e+00
2.811515e-02 7.897296e-14 0.000000e+00
3.358307e-02 -3.429036e-14 0.000000e+00
3.931762e-02 1.303403e-13 0.000000e+00
4.532734e-02 3.514744e-14 0.000000e+00
5.095083e-02 3.920460e-14 0.000000e+00
5.549071e-02 1.118129e-13 0.000000e+00
5.819321e-02 6.935955e-14 0.000000e+00
5.876464e-02 1.227053e-13 0.000000e+00
5.739935e-02 1.262682e-13 0.000000e+00
5.503588e-02 9.781924e-14 0.000000e+00
5.263733e-02 1.531862e-13 0.000000e+00
5.105147e-02 8.380075e-14 0.000000e+00
5.045301e-02 1.287336e-13 0.000000e+00
5.069067e-02 5.269422e-14 0.000000e+00
5.126896e-02 5.371019e-14 0.000000e+00
5.204347e-02 9.201963e-14 0.000000e+00
5.288060e-02 -2.774190e-14 0.000000e+00
5.399628e-02 1.044107e-13 0.000000e+00
5.533911e-02 7.669933e-15 0.000000e+00
5.714982e-02 2.778942e-14 0.000000e+00
5.919547e-02 3.243772e-15 0.000000e+00
6.143780e-02 1.983590e-14 0.000000e+00
6.329806e-02 -2.162320e-14 0.000000e+00
6.428682e-02 4.196106e-14 0.000000e+00
6.423069e-02 -8.855244e-15 0.000000e+00
6.284864e-02 3.984272e-14 0.000000e+00
6.005360e-02 -2.463805e-14 0.000000e+00
5.640595e-02 4.094235e-14 0.000000e+00
4.741130e-02 -5.125467e-14 0.000000e+00
3.678197e-02 7.305407e-14 0.000000e+00
0.000000e+00 -6.230938e-14 0.000000e+00
0.000000e+00 -6.932284e-14 0.000000e+00
8.114089e-03 -3.880312e-15 0.000000e+00
8.688290e-03 6.440618e-15 0.000000e+00
7.769551e-03 -4.365764e-15 0.000000e+00
6.810762e-03 -1.435093e-14 0.000000e+00
7.076900e-03 1.285966e-14 0.000000e+00
9.068030e-03 -3.782007e-15 0.000000e+00
1.273045e-02 1.620463e-14 0.000000e+00
1.744821e-02 3.366289e-14 0.000000e+00
2.275474e-02 5.537972e-15 0.000000e+00
2.811515e-02 7.589910e-14 0.000000e+00
3.358307e-02 -3.120498e-14 0.000000e+00
3.931762e-02 1.183407e-13 0.000000e+00
4.532734e-02 2.149787e-14 0.000000e+00
5.095083e-02 2.766443e-14 0.000000e+00
5.549071e-02 8.431511e-14 0.000000e+00
5.819321e-02 5.343280e-14 0.000000e+00
5.876464e-02 8.916356e-14 0.000000e+00
5.739935e-02 1.038619e-13 0.000000e+00
5.503588e-02 7.050537e-14 0.000000e+00
5.263733e-02 1.317848e-13 0.000000e+00
5.105147e-02 6.176300e-14 0.000000e+00
5.045301e-02 1.190160e-13 0.000000e+00
5.069067e-02 3.082896e-14 0.000000e+00
5.126896e-02 5.359377e-14 0.000000e+00
5.204347e-02 7.927954e-14 0.000000e+00
5.288060e-02 -1.836810e-14 0.000000e+00
5.399628e-02 9.036262e-14 0.000000e+00
5.533911e-02 4.604418e-15 0.000000e+00
5.714982e-02 2.393567e-14 0.000000e+00
5.919547e-02 -7.749166e-16 0.000000e+00
6.143780e-02 2.202021e-14 0.000000e+00
6.329806e-02 -2.517872e-14 0.000000e+00
6.428682e-02 3.200345e-14 0.000000e+00
6.423069e-02 -3.726169e-15 0.000000e+00
6.284864e-02 1.834175e-14 0.000000e+00
6.005360e-02 -1.204378e-14 0.000000e+00
5.640595e-02 1.473803e-14 0.000000e+00
4.741130e-02 -2.415999e-14 0.000000e+00
3.678197e-02 3.072704e-14 0.000000e+00
0.000000e+00 -6.167545e-14 0.000000e+00
0.000000e+00 -8.846557e-14 0.000000e+00
8.114089e-03 -4.408163e-14 0.000000e+00
8.688290e-03 -1.627668e-14 0.000000e+00
7.769551e-03 -7.565482e-15 0.000000e+00
6.810762e-03 -1.917055e-14 0.000000e+00
7.076900e-03 4.827337e-15 0.000000e+00
9.068030e-03 -1.143276e-14 0.000000e+00
1.273045e-02 2.134102e-14 0.000000e+00
1.744821e-02 1.753405e-14 0.000000e+00
2.275474e-02 8.797455e-15 0.000000e+00
2.811515e-02 3.721842e-14 0.000000e+00
3.358307e-02 -1.668614e-14 0.000000e+00
3.931762e-02 6.506249e-14 0.000000e+00
4.532734e-02 -1.023735e-14 0.000000e+00
5.095083e-02 3.293920e-16 0.000000e+00
5.549071e-02 4.224012e-14 0.000000e+00
5.819321e-02 2.513488e-15 0.000000e+00
5.876464e-02 5.197438e-14 0.000000e+00
5.739935e-02 4.749017e-14 0.000000e+00
5.503588e-02 2.786116e-14 0.000000e+00
5.263733e-02 6.564891e-14 0.000000e+00
5.105147e-02 3.370015e-14 0.000000e+00
5.045301e-02 4.791141e-14 0.000000e+00
5.069067e-02 7.219263e-15 0.000000e+00
5.126896e-02 1.227881e-14 0.000000e+00
5.204347e-02 3.881825e-14 0.000000e+00
5.288060e-02 -6.485173e-14 0.000000e+00
5.399628e-02 5.352663e-14 0.000000e+00
5.533911e-02 -2.384495e-14 0.000000e+00
5.714982e-02 -2.383506e-15 0.000000e+00
5.919547e-02 -2.328606e-14 0.000000e+00
6.143780e-02 -2.386294e-15 0.000000e+00
6.329806e-02 -5.237419e-14 0.000000e+00
6.428682e-02 3.715836e-14 0.000000e+00
6.423069e-02 -4.099499e-14 0.000000e+00
6.284864e-02 4.377094e-14 0.000000e+00
6.005360e-02 -5.082503e-14 0.000000e+00
5.640595e-02 5.030933e-14 0.000000e+00
4.741130e-02 -8.184605e-14 0.000000e+00
3.678197e-02 7.847318e-14 0.000000e+00
0.000000e+00 3.564433e-14 0.000000e+00
0.000000e+00 0.000000e+00 0.000000e+00
8.114089e-03 0.000000e+00 0.000000e+00
8.688290e-03 0.000000e+00 0.000000e+00
7.769551e-03 0.000000e+00 0.000000e+00
6.810762e-03 0.000000e+00 0.000000e+00
7.076900e-03 0.000000e+00 0.000000e+00
9.068030e-03 0.000000e+00 0.000000e+00
1.273045e-02 0.000000e+00 0.000000e+00
1.744821e-02 0.000000e+00 0.000000e+00
2.275474e-02 0.000000e+00 0.000000e+00
2.811515e-02 0.000000e+00 0.000000e+00
3.358307e-02 0.000000e+00 0.000000e+00
3.931762e-02 0.000000e+00 0.000000e+00
4.532734e-02 0.000000e+00 0.000000e+00
5.095083e-02 0.000000e+00 0.000000e+00
5.549071e-02 0.000000e+00 0.000000e+00
5.819321e-02 0.000000e+00 0.000000e+00
5.876464e-02 0.000000e+00 0.000000e+00
5.739935e-02 0.000000e+00 0.000000e+00
5.503588e-02 0.000000e+00 0.000000e+00
5.263733e-02 0.000000e+00 0.000000e+00
5.105147e-02 0.000000e+00 0.000000e+00
5.045301e-02 0.000000e+00 0.000000e+00
5.069067e-02 0.000000e+00 0.000000e+00
5.126896e-02 0.000000e+00 0.000000e+00
5.204347e-02 0.000000e+00 0.000000e+00
5.288060e-02 0.000000e+00 0.000000e+00
5.399628e-02 0.000000e+00 0.000000e+00
5.533911e-02 0.000000e+00 0.000000e+00
5.714982e-02 0.000000e+00 0.000000e+00
5.919547e-02 0.000000e+00 0.000000e+00
6.143780e-02 0.000000e+00 0.000000e+00
6.329806e-02 0.000000e+00 0.000000e+00
6.428682e-02 0.000000e+00 0.000000e+00
6.423069e-02 0.000000e+00 0.000000e+00
6.284864e-02 0.000000e+00 0.000000e+00
6.005360e-02 0.000000e+00 0.000000e+00
5.640595e-02 0.000000e+00 0.000000e+00
4.741130e-02 0.000000e+00 0.000000e+00
3.678197e-02 0.000000e+00 0.000000e+00
0.000000e+00 0.000000e+00 0.000000e+00
0.000000e+00 0.000000e+00 -5.728757e-03
-9.572589e-03 0.000000e+00 -2.463787e-03
-1.689053e-02 0.000000e+00 5.916426e-04
-2.345611e-02 0.000000e+00 1.820469e-04
-2.797732e-02 0.000000e+00 -9.431878e-04
-3.026547e-02 0.000000e+00 -2.681187e-03
-3.112390e-02 0.000000e+00 -4.175425e-03
-3.143027e-02 0.000000e+00 -5.232971e-03
-3.133590e-02 0.000000e+00 -5.901709e-03
-3.073021e-02 0.000000e+00 -6.354874e-03
-2.905923e-02 0.000000e+00 -6.725816e-03
-2.633686e-02 0.000000e+00 -7.227088e-03
-2.247626e-02 0.000000e+00 -7.791146e-03
-1.792136e-02 0.000000e+00 -7.956410e-03
-1.310852e-02 0.000000e+00 -7.466629e-03
-8.608112e-03 0.000000e+00 -6.272198e-03
-4.979199e-03 0.000000e+00 -4.515659e-03
-2.683105e-03 0.000000e+00 -2.598156e-03
-1.831801e-03 0.000000e+00 -1.116699e-03
-2.203114e-03 0.000000e+00 -4.355047e-04
-3.327454e-03 0.000000e+00 -6.187931e-04
-4.488875e-03 0.000000e+00 -1.358486e-03
-5.257174e-03 0.000000e+00 -2.204813e-03
-5.369755e-03 0.000000e+00 -2.810555e-03
-4.883352e-03 0.000000e+00 -3.185915e-03
-3.738716e-03 0.000000e+00 -3.443616e-03
-2.091725e-03 0.000000e+00 -3.748401e-03
1.555834e-04 0.000000e+00 -4.082917e-03
2.838047e-03 0.000000e+00 -4.511342e-03
6.142561e-03 0.000000e+00 -4.926879e-03
9.810553e-03 0.000000e+00 -5.244915e-03
1.399271e-02 0.000000e+00 -5.307063e-03
1.811057e-02 0.000000e+00 -4.834035e-03
2.210229e-02 0.000000e+00 -3.970867e-03
2.498760e-02 0.000000e+00 -2.844944e-03
2.660449e-02 0.000000e+00 -1.098661e-03
2.619619e-02 0.000000e+00 -4.529496e-04
2.423383e-02 0.000000e+00 3.324771e-03
1.963637e-02 0.000000e+00 4.130240e-03
1.279760e-02 0.000000e+00 1.598916e-02
0.000000e+00 0.000000e+00 3.146785e-02
0.000000e+00 1.782918e-14 -5.728757e-03
-9.572589e-03 -5.599093e-15 -2.463787e-03
-1.689053e-02 -9.225386e-15 5.916426e-04
-2.345611e-02 1.008537e-14 1.820469e-04
-2.797732e-02 -9.912717e-15 -9.431878e-04
-3.026547e-02 4.497317e-15 -2.681187e-03
-3.112390e-02 -1.440386e-14 -4.175425e-03
-3.143027e-02 1.397254e-15 -5.232971e-03
-3.133590e-02 -2.177810e-14 -5.901709e-03
-3.073021e-02 6.120077e-16 -6.354874e-03
-2.905923e-02 -8.006027e-15 -6.725816e-03
-2.633686e-02 1.655268e-14 -7.227088e-03
-2.247626e-02 2.576887e-14 -7.791146e-03
-1.792136e-02 9.180709e-15 -7.956410e-03
-1.310852e-02 9.128514e-14 -7.466629e-03
-8.608112e-03 3.876863e-14 -6.272198e-03
-4.979199e-03 8.887375e-14 -4.515659e-03
-2.683105e-03 1.537200e-13 -2.598156e-03
-1.831801e-03 1.279796e-13 -1.116699e-03
-2.203114e-03 1.771241e-13 -4.355047e-04
-3.327454e-03 1.852208e-13 -6.187931e-04
-4.488875e-03 1.460328e-13 -1.358486e-03
-5.257174e-03 1.648401e-13 -2.204813e-03
-5.369755e-03 1.010850e-13 -2.810555e-03
-4.883352e-03 1.544669e-13 -3.185915e-03
-3.738716e-03 6.396506e-14 -3.443616e-03
-2.091725e-03 9.468942e-14 -3.748401e-03
1.555834e-04 7.490655e-14 -4.082917e-03
2.838047e-03 3.875510e-14 -4.511342e-03
6.142561e-03 4.862843e-14 -4.926879e-03
9.810553e-03 1.503199e-14 -5.244915e-03
1.399271e-02 3.925846e-15 -5.307063e-03
1.811057e-02 1.098138e-14 -4.834035e-03
2.210229e-02 5.489618e-14 -3.970867e-03
2.498760e-02 -1.456772e-14 -2.844944e-03
2.660449e-02 5.100447e-14 -1.098661e-03
2.619619e-02 -4.500023e-14 -4.529496e-04
2.423383e-02 4.778890e-14 3.324771e-03
1.963637e-02 -9.565738e-14 4.130240e-03
1.279760e-02 7.912438e-14 1.598916e-02
0.000000e+00 -1.180837e-14 3.146785e-02
0.000000e+00 1.265421e-15 -5.728757e-03
-9.572589e-03 -2.953152e-14 -2.463787e-03
-1.689053e-02 -2.114350e-14 5.916426e-04
-2.345611e-02 8.592661e-15 1.820469e-04
-2.797732e-02 -1.484025e-14 -9.431878e-04
-3.026547e-02 2.018880e-14 -2.681187e-03
-3.112390e-02 -3.332208e-15 -4.175425e-03
-3.143027e-02 2.955525e-14 -5.232971e-03
-3.133590e-02 1.239593e-15 -5.901709e-03
-3.073021e-02 3.277751e-14 -6.354874e-03
-2.905923e-02 1.845997e-14 -6.725816e-03
-2.633686e-02 4.264260e-14 -7.227088e-03
-2.247626e-02 6.396746e-14 -7.791146e-03
-1.792136e-02 1.831290e-14 -7.956410e-03
-1.310852e-02 1.415578e-13 -7.466629e-03
-8.608112e-03 6.100955e-14 -6.272198e-03
-4.979199e-03 1.113724e-13 -4.515659e-03
-2.683105e-03 1.757123e-13 -2.598156e-03
-1.831801e-03 1.578327e-13 -1.116699e-03
-2.203114e-03 2.058509e-13 -4.355047e-04
-3.327454e-03 2.289483e-13 -6.187931e-04
-4.488875e-03 1.811025e-13 -1.358486e-03
-5.257174e-03 2.198602e-13 -2.204813e-03
-5.369755e-03 1.172158e-13 -2.810555e-03
-4.883352e-03 2.056327e-13 -3.185915e-03
-3.738716e-03 8.422874e-14 -3.443616e-03
-2.091725e-03 1.388062e-13 -3.748401e-03
1.555834e-04 7.867925e-14 -4.082917e-03
2.838047e-03 6.766489e-14 -4.511342e-03
6.142561e-03 5.656300e-14 -4.926879e-03
9.810553e-03 3.705770e-14 -5.244915e-03
1.399271e-02 1.963634e-14 -5.307063e-03
1.811057e-02 3.038792e-15 -4.834035e-03
2.210229e-02 6.082477e-14 -3.970867e-03
2.498760e-02 -1.437443e-14 -2.844944e-03
2.660449e-02 2.484791e-14 -1.098661e-03
2.619619e-02 -1.302957e-14 -4.529496e-04
2.423383e-02 1.913953e-14 3.324771e-03
1.963637e-02 -3.872048e-14 4.130240e-03
1.279760e-02 3.961937e-14 1.598916e-02
0.000000e+00 2.167128e-14 3.146785e-02
0.000000e+00 1.746195e-14 -5.728757e-03
-9.572589e-03 -2.457413e-14 -2.463787e-03
-1.689053e-02 -2.314416e-14 5.916426e-04
-2.345611e-02 7.279134e-15 1.820469e-04
-2.797732e-02 -1.315162e-14 -9.431878e-04
-3.026547e-02 2.801063e-14 -2.681187e-03
-3.112390e-02 2.333328e-15 -4.175425e-03
-3.143027e-02 4.098184e-14 -5.232971e-03
-3.133590e-02 1.475485e-14 -5.901709e-03
-3.073021e-02 5.298162e-14 -6.354874e-03
-2.905923e-02 4.214961e-14 -6.725816e-03
-2.633686e-02 5.569452e-14 -7.227088e-03
-2.247626e-02 7.481927e-14 -7.791146e-03
-1.792136e-02 2.651445e-14 -7.956410e-03
-1.310852e-02 1.538119e-13 -7.466629e-03
-8.608112e-03 6.290049e-14 -6.272198e-03
-4.979199e-03 1.066557e-13 -4.515659e-03
-2.683105e-03 1.538583e-13 -2.598156e-03
-1.831801e-03 1.198185e-13 -1.116699e-03
-2.203114e-03 1.797389e-13 -4.355047e-04
-3.327454e-03 2.021130e-13 -6.187931e-04
-4.488875e-03 1.580470e-13 -1.358486e-03
-5.257174e-03 2.042663e-13 -2.204813e-03
-5.369755e-03 9.812308e-14 -2.810555e-03
-4.883352e-03 1.974596e-13 -3.185915e-03
-3.738716e-03 7.192374e-14 -3.443616e-03
-2.091725e-03 1.272335e-13 -3.748401e-03
1.555834e-04 8.425454e-14 -4.082917e-03
2.838047e-03 5.087093e-14 -4.511342e-03
6.142561e-03 6.515142e-14 -4.926879e-03
9.810553e-03 1.866913e-14 -5.244915e-03
1.399271e-02 2.944985e-14 -5.307063e-03
1.811057e-02 2.995957e-16 -4.834035e-03
2.210229e-02 8.212723e-14 -3.970867e-03
2.498760e-02 -2.205554e-14 -2.844944e-03
2.660449e-02 4.480066e-14 -1.098661e-03
2.619619e-02 -4.896422e-14 -4.529496e-04
2.423383e-02 3.680381e-14 3.324771e-03
1.963637e-02 -9.340003e-14 4.130240e-03
1.279760e-02 8.440014e-14 1.598916e-02
0.000000e+00 -4.270022e-15 3.146785e-02
0.000000e+00 8.034357e-16 -5.728757e-03
-9.572589e-03 -3.011723e-14 -2.463787e-03
-1.689053e-02 -2.561331e-14 5.916426e-04
-2.345611e-02 3.218393e-15 1.820469e-04
-2.797732e-02 -9.165297e-15 -9.431878e-04
-3.026547e-02 2.268339e-14 -2.681187e-03
-3.112390e-02 -4.313479e-15 -4.175425e-03
-3.143027e-02 2.926720e-14 -5.232971e-03
-3.133590e-02 1.135311e-14 -5.901709e-03
-3.073021e-02 4.006225e-14 -6.354874e-03
-2.905923e-02 2.961074e-14 -6.725816e-03
-2.633686e-02 4.617849e-14 -7.227088e-03
-2.247626e-02 5.864105e-14 -7.791146e-03
-1.792136e-02 1.836461e-14 -7.956410e-03
-1.310852e-02 1.351580e-13 -7.466629e-03
-8.608112e-03 4.981469e-14 -6.272198e-03
-4.979199e-03 9.262100e-14 -4.515659e-03
-2.683105e-03 1.376832e-13 -2.598156e-03
-1.831801e-03 1.126790e-13 -1.116699e-03
-2.203114e-03 1.578306e-13 -4.355047e-04
-3.327454e-03 1.845398e-13 -6.187931e-04
-4.488875e-03 1.392955e-13 -1.358486e-03
-5.257174e-03 1.855501e-13 -2.204813e-03
-5.369755e-03 8.772113e-14 -2.810555e-03
-4.883352e-03 1.875890e-13 -3.185915e-03
-3.738716e-03 7.030602e-14 -3.443616e-03
-2.091725e-03 1.276117e-13 -3.748401e-03
1.555834e-04 7.632454e-14 -4.082917e-03
2.838047e-03 5.744519e-14 -4.511342e-03
6.142561e-03 6.006981e-14 -4.926879e-03
9.810553e-03 3.627208e-14 -5.244915e-03
1.399271e-02 2.964306e-14 -5.307063e-03
1.811057e-02 1.930068e-15 -4.834035e-03
2.210229e-02 6.494835e-14 -3.970867e-03
2.498760e-02 -2.125228e-14 -2.844944e-03
2.660449e-02 2.618160e-14 -1.098661e-03
2.619619e-02 -2.373783e-14 -4.529496e-04
2.423383e-02 1.970885e-14 3.324771e-03
1.963637e-02 -4.006277e-14 4.130240e-03
1.279760e-02 3.939623e-14 1.598916e-02
0.000000e+00 6.465059e-15 3.146785e-02
0.000000e+00 -2.562845e-14 -5.728757e-03
-9.572589e-03 -4.505237e-14 -2.463787e-03
-1.689053e-02 -2.198893e-14 5.916426e-04
-2.345611e-02 -2.490925e-16 1.820469e-04
-2.797732e-02 -1.233420e-14 -9.431878e-04
-3.026547e-02 1.205083e-14 -2.681187e-03
-3.112390e-02 -9.846960e-15 -4.175425e-03
-3.143027e-02 9.766523e-15 -5.232971e-03