# vtk DataFile Version 3.0
vtk output
ASCII
DATASET UNSTRUCTURED_GRID
POINTS 11767 float
0.000000e+00 0.000000e+00 0.000000e+00
1.460000e-02 0.000000e+00 0.000000e+00
2.920000e-02 0.000000e+00 0.000000e+00
4.380000e-02 0.000000e+00 0.000000e+00
5.840000e-02 0.000000e+00 0.000000e+00
7.300000e-02 0.000000e+00 0.000000e+00
8.760000e-02 0.000000e+00 0.000000e+00
1.022000e-01 0.000000e+00 0.000000e+00
1.168000e-01 0.000000e+00 0.000000e+00
1.314000e-01 0.000000e+00 0.000000e+00
1.460000e-01 0.000000e+00 0.000000e+00
1.606000e-01 0.000000e+00 0.000000e+00
1.752000e-01 0.000000e+00 0.000000e+00
1.898000e-01 0.000000e+00 0.000000e+00
2.044000e-01 0.000000e+00 0.000000e+00
2.190000e-01 0.000000e+00 0.000000e+00
2.336000e-01 0.000000e+00 0.000000e+00
2.482000e-01 0.000000e+00 0.000000e+00
2.628000e-01 0.000000e+00 0.000000e+00
2.774000e-01 0.000000e+00 0.000000e+00
2.920000e-01 0.000000e+00 0.000000e+00
3.066000e-01 0.000000e+00 0.000000e+00
3.212000e-01 0.000000e+00 0.000000e+00
3.358000e-01 0.000000e+00 0.000000e+00
3.504000e-01 0.000000e+00 0.000000e+00
3.650000e-01 0.000000e+00 0.000000e+00
3.796000e-01 0.000000e+00 0.000000e+00
3.942000e-01 0.000000e+00 0.000000e+00
4.088000e-01 0.000000e+00 0.000000e+00
4.234000e-01 0.000000e+00 0.000000e+00
4.380000e-01 0.000000e+00 0.000000e+00
4.526000e-01 0.000000e+00 0.000000e+00
4.672000e-01 0.000000e+00 0.000000e+00
4.818000e-01 0.000000e+00 0.000000e+00
4.964000e-01 0.000000e+00 0.000000e+00
5.110000e-01 0.000000e+00 0.000000e+00
5.256000e-01 0.000000e+00 0.000000e+00
5.402000e-01 0.000000e+00 0.000000e+00
5.548000e-01 0.000000e+00 0.000000e+00
5.694000e-01 0.000000e+00 0.000000e+00
5.840000e-01 0.000000e+00 0.000000e+00
0.000000e+00 1.460000e-02 0.000000e+00
1.460000e-02 1.460000e-02 0.000000e+00
2.920000e-02 1.460000e-02 0.000000e+00
4.380000e-02 1.460000e-02 0.000000e+00
5.840000e-02 1.460000e-02 0.000000e+00
7.300000e-02 1.460000e-02 0.000000e+00
8.760000e-02 1.460000e-02 0.000000e+00
1.022000e-01 1.460000e-02 0.000000e+00
1.168000e-01 1.460000e-02 0.000000e+00
1.314000e-01 1.460000e-02 0.000000e+00
1.460000e-01 1.460000e-02 0.000000e+00
1.606000e-01 1.460000e-02 0.000000e+00
1.752000e-01 1.460000e-02 0.000000e+00
1.898000e-01 1.460000e-02 0.000000e+00
2.044000e-01 1.460000e-02 0.000000e+00
2.190000e-01 1.460000e-02 0.000000e+00
2.336000e-01 1.460000e-02 0.000000e+00
2.482000e-01 1.460000e-02 0.000000e+00
2.628000e-01 1.460000e-02 0.000000e+00
2.774000e-01 1.460000e-02 0.000000e+00
2.920000e-01 1.460000e-02 0.000000e+00
3.066000e-01 1.460000e-02 0.000000e+00
3.212000e-01 1.460000e-02 0.000000e+00
3.358000e-01 1.460000e-02 0.000000e+00
3.504000e-01 1.460000e-02 0.000000e+00
3.650000e-01 1.460000e-02 0.000000e+00
3.796000e-01 1.460000e-02 0.000000e+00
3.942000e-01 1.460000e-02 0.000000e+00
4.088000e-01 1.460000e-02 0.000000e+00
4.234000e-01 1.460000e-02 0.000000e+00
4.380000e-01 1.460000e-02 0.000000e+00
4.526000e-01 1.460000e-02 0.000000e+00
4.672000e-01 1.460000e-02 0.000000e+00
4.818000e-01 1.460000e-02 0.000000e+00
4.964000e-01 1.460000e-02 0.000000e+00
5.110000e-01 1.460000e-02 0.000000e+00
5.256000e-01 1.460000e-02 0.000000e+00
5.402000e-01 1.460000e-02 0.000000e+00
5.548000e-01 1.460000e-02 0.000000e+00
5.694000e-01 1.460000e-02 0.000000e+00
5.840000e-01 1.460000e-02 0.000000e+00
0.000000e+00 2.920000e-02 0.000000e+00
1.460000e-02 2.920000e-02 0.000000e+00
2.920000e-02 2.920000e-02 0.000000e+00
4.380000e-02 2.920000e-02 0.000000e+00
5.840000e-02 2.920000e-02 0.000000e+00
7.300000e-02 2.920000e-02 0.000000e+00
8.760000e-02 2.920000e-02 0.000000e+00
1.022000e-01 2.920000e-02 0.000000e+00
1.168000e-01 2.920000e-02 0.000000e+00
1.314000e-01 2.920000e-02 0.000000e+00
1.460000e-01 2.920000e-02 0.000000e+00
1.606000e-01 2.920000e-02 0.000000e+00
1.752000e-01 2.920000e-02 0.000000e+00
1.898000e-01 2.920000e-02 0.000000e+00
2.044000e-01 2.920000e-02 0.000000e+00
2.190000e-01 2.920000e-02 0.000000e+00
2.336000e-01 2.920000e-02 0.000000e+00
2.482000e-01 2.920000e-02 0.000000e+00
2.628000e-01 2.920000e-02 0.000000e+00
2.774000e-01 2.920000e-02 0.000000e+00
2.920000e-01 2.920000e-02 0.000000e+00
3.066000e-01 2.920000e-02 0.000000e+00
3.212000e-01 2.920000e-02 0.000000e+00
3.358000e-01 2.920000e-02 0.000000e+00
3.504000e-01 2.920000e-02 0.000000e+00
3.650000e-01 2.920000e-02 0.000000e+00
3.796000e-01 2.920000e-02 0.000000e+00
3.942000e-01 2.920000e-02 0.000000e+00
4.088000e-01 2.920000e-02 0.000000e+00
4.234000e-01 2.920000e-02 0.000000e+00
4.380000e-01 2.920000e-02 0.000000e+00
4.526000e-01 2.920000e-02 0.000000e+00
4.672000e-01 2.920000e-02 0.000000e+00
4.818000e-01 2.920000e-02 0.000000e+00
4.964000e-01 2.920000e-02 0.000000e+00
5.110000e-01 2.920000e-02 0.000000e+00
5.256000e-01 2.920000e-02 0.000000e+00
5.402000e-01 2.920000e-02 0.000000e+00
5.548000e-01 2.920000e-02 0.000000e+00
5.694000e-01 2.920000e-02 0.000000e+00
5.840000e-01 2.920000e-02 0.000000e+00
0.000000e+00 4.380000e-02 0.000000e+00
1.460000e-02 4.380000e-02 0.000000e+00
2.920000e-02 4.380000e-02 0.000000e+00
4.380000e-02 4.380000e-02 0.000000e+00
5.840000e-02 4.380000e-02 0.000000e+00
7.300000e-02 4.380000e-02 0.000000e+00
8.760000e-02 4.380000e-02 0.000000e+00
1.022000e-01 4.380000e-02 0.000000e+00
1.168000e-01 4.380000e-02 0.000000e+00
1.314000e-01 4.380000e-02 0.000000e+00
1.460000e-01 4.380000e-02 0.000000e+00
1.606000e-01 4.380000e-02 0.000000e+00
1.752000e-01 4.380000e-02 0.000000e+00
1.898000e-01 4.380000e-02 0.000000e+00
2.044000e-01 4.380000e-02 0.000000e+00
2.190000e-01 4.380000e-02 0.000000e+00
2.336000e-01 4.380000e-02 0.000000e+00
2.482000e-01 4.380000e-02 0.000000e+00
2.628000e-01 4.380000e-02 0.000000e+00
2.774000e-01 4.380000e-02 0.000000e+00
2.920000e-01 4.380000e-02 0.000000e+00
3.066000e-01 4.380000e-02 0.000000e+00
3.212000e-01 4.380000e-02 0.000000e+00
3.358000e-01 4.380000e-02 0.000000e+00
3.504000e-01 4.380000e-02 0.000000e+00
3.650000e-01 4.380000e-02 0.000000e+00
3.796000e-01 4.380000e-02 0.000000e+00
3.942000e-01 4.380000e-02 0.000000e+00
4.088000e-01 4.380000e-02 0.000000e+00
4.234000e-01 4.380000e-02 0.000000e+00
4.380000e-01 4.380000e-02 0.000000e+00
4.526000e-01 4.380000e-02 0.000000e+00
4.672000e-01 4.380000e-02 0.000000e+00
4.818000e-01 4.380000e-02 0.000000e+00
4.964000e-01 4.380000e-02 0.000000e+00
5.110000e-01 4.380000e-02 0.000000e+00
5.256000e-01 4.380000e-02 0.000000e+00
5.402000e-01 4.380000e-02 0.000000e+00
5.548000e-01 4.380000e-02 0.000000e+00
5.694000e-01 4.380000e-02 0.000000e+00
5.840000e-01 4.380000e-02 0.000000e+00
0.000000e+00 5.840000e-02 0.000000e+00
1.460000e-02 5.840000e-02 0.000000e+00
2.920000e-02 5.840000e-02 0.000000e+00
4.380000e-02 5.840000e-02 0.000000e+00
5.840000e-02 5.840000e-02 0.000000e+00
7.300000e-02 5.840000e-02 0.000000e+00
8.760000e-02 5.840000e-02 0.000000e+00
1.022000e-01 5.840000e-02 0.000000e+00
1.168000e-01 5.840000e-02 0.000000e+00
1.314000e-01 5.840000e-02 0.000000e+00
1.460000e-01 5.840000e-02 0.000000e+00
1.606000e-01 5.840000e-02 0.000000e+00
1.752000e-01 5.840000e-02 0.000000e+00
1.898000e-01 5.840000e-02 0.000000e+00
2.044000e-01 5.840000e-02 0.000000e+00
2.190000e-01 5.840000e-02 0.000000e+00
2.336000e-01 5.840000e-02 0.000000e+00
2.482000e-01 5.840000e-02 0.000000e+00
2.628000e-01 5.840000e-02 0.000000e+00
2.774000e-01 5.840000e-02 0.000000e+00
2.920000e-01 5.840000e-02 0.000000e+00
3.066000e-01 5.840000e-02 0.000000e+00
3.212000e-01 5.840000e-02 0.000000e+00
3.358000e-01 5.840000e-02 0.000000e+00
3.504000e-01 5.840000e-02 0.000000e+00
3.650000e-01 5.840000e-02 0.000000e+00
3.796000e-01 5.840000e-02 0.000000e+00
3.942000e-01 5.840000e-02 0.000000e+00
4.088000e-01 5.840000e-02 0.000000e+00
4.234000e-01 5.840000e-02 0.000000e+00
4.380000e-01 5.840000e-02 0.000000e+00
4.526000e-01 5.840000e-02 0.000000e+00
4.672000e-01 5.840000e-02 0.000000e+00
4.818000e-01 5.840000e-02 0.000000e+00
4.964000e-01 5.840000e-02 0.000000e+00
5.110000e-01 5.840000e-02 0.000000e+00
5.256000e-01 5.840000e-02 0.000000e+00
5.402000e-01 5.840000e-02 0.000000e+00
5.548000e-01 5.840000e-02 0.000000e+00
5.694000e-01 5.840000e-02 0.000000e+00
5.840000e-01 5.840000e-02 0.000000e+00
0.000000e+00 7.300000e-02 0.000000e+00
1.460000e-02 7.300000e-02 0.000000e+00
2.920000e-02 7.300000e-02 0.000000e+00
4.380000e-02 7.300000e-02 0.000000e+00
5.840000e-02 7.300000e-02 0.000000e+00
7.300000e-02 7.300000e-02 0.000000e+00
8.760000e-02 7.300000e-02 0.000000e+00
1.022000e-01 7.300000e-02 0.000000e+00
1.168000e-01 7.300000e-02 0.000000e+00
1.314000e-01 7.300000e-02 0.000000e+00
1.460000e-01 7.300000e-02 0.000000e+00
1.606000e-01 7.300000e-02 0.000000e+00
1.752000e-01 7.300000e-02 0.000000e+00
1.898000e-01 7.300000e-02 0.000000e+00
2.044000e-01 7.300000e-02 0.000000e+00
2.190000e-01 7.300000e-02 0.000000e+00
2.336000e-01 7.300000e-02 0.000000e+00
2.482000e-01 7.300000e-02 0.000000e+00
2.628000e-01 7.300000e-02 0.000000e+00
2.774000e-01 7.300000e-02 0.000000e+00
2.920000e-01 7.300000e-02 0.000000e+00
3.066000e-01 7.300000e-02 0.000000e+00
3.212000e-01 7.300000e-02 0.000000e+00
3.358000e-01 7.300000e-02 0.000000e+00
3.504000e-01 7.300000e-02 0.000000e+00
3.650000e-01 7.300000e-02 0.000000e+00
3.796000e-01 7.300000e-02 0.000000e+00
3.942000e-01 7.300000e-02 0.000000e+00
4.088000e-01 7.300000e-02 0.000000e+00
4.234000e-01 7.300000e-02 0.000000e+00
4.380000e-01 7.300000e-02 0.000000e+00
4.526000e-01 7.300000e-02 0.000000e+00
4.672000e-01 7.300000e-02 0.000000e+00
4.818000e-01 7.300000e-02 0.000000e+00
4.964000e-01 7.300000e-02 0.000000e+00
5.110000e-01 7.300000e-02 0.000000e+00
5.256000e-01 7.300000e-02 0.000000e+00
5.402000e-01 7.300000e-02 0.000000e+00
5.548000e-01 7.300000e-02 0.000000e+00
5.694000e-01 7.300000e-02 0.000000e+00
5.840000e-01 7.300000e-02 0.000000e+00
0.000000e+00 8.760000e-02 0.000000e+00
1.460000e-02 8.760000e-02 0.000000e+00
2.920000e-02 8.760000e-02 0.000000e+00
4.380000e-02 8.760000e-02 0.000000e+00
5.840000e-02 8.760000e-02 0.000000e+00
7.300000e-02 8.760000e-02 0.000000e+00
8.760000e-02 8.760000e-02 0.000000e+00
1.022000e-01 8.760000e-02 0.000000e+00
[...]
POINT_DATA 11767
VECTORS Velocity float
0.000000e+00 0.000000e+00 0.000000e+00
2.074114e-02 0.000000e+00 0.000000e+00
3.307528e-02 0.000000e+00 0.000000e+00
4.236325e-02 0.000000e+00 0.000000e+00
4.874143e-02 0.000000e+00 0.000000e+00
5.349633e-02 0.000000e+00 0.000000e+00
5.666515e-02 0.000000e+00 0.000000e+00
5.855263e-02 0.000000e+00 0.000000e+00
5.927322e-02 0.000000e+00 0.000000e+00
5.921157e-02 0.000000e+00 0.000000e+00
5.866539e-02 0.000000e+00 0.000000e+00
5.809491e-02 0.000000e+00 0.000000e+00
5.785603e-02 0.000000e+00 0.000000e+00
5.797712e-02 0.000000e+00 0.000000e+00
5.849339e-02 0.000000e+00 0.000000e+00
5.948941e-02 0.000000e+00 0.000000e+00
6.106853e-02 0.000000e+00 0.000000e+00
6.331727e-02 0.000000e+00 0.000000e+00
6.621366e-02 0.000000e+00 0.000000e+00
6.963999e-02 0.000000e+00 0.000000e+00
7.329698e-02 0.000000e+00 0.000000e+00
7.687160e-02 0.000000e+00 0.000000e+00
8.006288e-02 0.000000e+00 0.000000e+00
8.268664e-02 0.000000e+00 0.000000e+00
8.463781e-02 0.000000e+00 0.000000e+00
8.597093e-02 0.000000e+00 0.000000e+00
8.679267e-02 0.000000e+00 0.000000e+00
8.732453e-02 0.000000e+00 0.000000e+00
8.771972e-02 0.000000e+00 0.000000e+00
8.817299e-02 0.000000e+00 0.000000e+00
8.868895e-02 0.000000e+00 0.000000e+00
8.921259e-02 0.000000e+00 0.000000e+00
8.954149e-02 0.000000e+00 0.000000e+00
8.930994e-02 0.000000e+00 0.000000e+00
8.830321e-02 0.000000e+00 0.000000e+00
8.604572e-02 0.000000e+00 0.000000e+00
8.165934e-02 0.000000e+00 0.000000e+00
7.577275e-02 0.000000e+00 0.000000e+00
6.271625e-02 0.000000e+00 0.000000e+00
4.707003e-02 0.000000e+00 0.000000e+00
0.000000e+00 0.000000e+00 0.000000e+00
0.000000e+00 1.320831e-15 0.000000e+00
2.074114e-02 1.115856e-13 0.000000e+00
3.307528e-02 1.606275e-13 0.000000e+00
4.236325e-02 1.469521e-13 0.000000e+00
4.874143e-02 2.996286e-15 0.000000e+00
5.349633e-02 -3.175248e-13 0.000000e+00
5.666515e-02 -6.364875e-13 0.000000e+00
5.855263e-02 -8.486977e-13 0.000000e+00
5.927322e-02 -9.975186e-13 0.000000e+00
5.921157e-02 -9.053707e-13 0.000000e+00
5.866539e-02 -8.760298e-13 0.000000e+00
5.809491e-02 -1.074545e-12 0.000000e+00
5.785603e-02 -1.123130e-12 0.000000e+00
5.797712e-02 -1.065222e-12 0.000000e+00
5.849339e-02 -8.710861e-13 0.000000e+00
5.948941e-02 -6.036577e-13 0.000000e+00
6.106853e-02 -4.759525e-13 0.000000e+00
6.331727e-02 -3.437995e-13 0.000000e+00
6.621366e-02 -3.184715e-13 0.000000e+00
6.963999e-02 -3.846358e-13 0.000000e+00
7.329698e-02 -3.613096e-13 0.000000e+00
7.687160e-02 -3.386829e-13 0.000000e+00
8.006288e-02 -3.258507e-13 0.000000e+00
8.268664e-02 -2.422712e-13 0.000000e+00
8.463781e-02 -2.453009e-13 0.000000e+00
8.597093e-02 -8.765960e-14 0.000000e+00
8.679267e-02 -1.089544e-13 0.000000e+00
8.732453e-02 -4.162854e-15 0.000000e+00
8.771972e-02 -2.279097e-14 0.000000e+00
8.817299e-02 -3.115517e-14 0.000000e+00
8.868895e-02 -1.060256e-13 0.000000e+00
8.921259e-02 -5.171489e-14 0.000000e+00
8.954149e-02 -8.364549e-14 0.000000e+00
8.930994e-02 4.153359e-14 0.000000e+00
8.830321e-02 8.978245e-15 0.000000e+00
8.604572e-02 1.199730e-13 0.000000e+00
8.165934e-02 8.358463e-14 0.000000e+00
7.577275e-02 2.086853e-13 0.000000e+00
6.271625e-02 1.654347e-13 0.000000e+00
4.707003e-02 3.127196e-13 0.000000e+00
0.000000e+00 6.483659e-13 0.000000e+00
0.000000e+00 -4.880902e-14 0.000000e+00
2.074114e-02 1.413130e-13 0.000000e+00
3.307528e-02 1.970320e-13 0.000000e+00
4.236325e-02 2.032540e-13 0.000000e+00
4.874143e-02 1.944761e-14 0.000000e+00
5.349633e-02 -3.764994e-13 0.000000e+00
5.666515e-02 -8.107408e-13 0.000000e+00
5.855263e-02 -1.092991e-12 0.000000e+00
5.927322e-02 -1.290271e-12 0.000000e+00
5.921157e-02 -1.216686e-12 0.000000e+00
5.866539e-02 -1.176230e-12 0.000000e+00
5.809491e-02 -1.473798e-12 0.000000e+00
5.785603e-02 -1.506472e-12 0.000000e+00
5.797712e-02 -1.457894e-12 0.000000e+00
5.849339e-02 -1.208729e-12 0.000000e+00
5.948941e-02 -8.538495e-13 0.000000e+00
6.106853e-02 -6.740934e-13 0.000000e+00
6.331727e-02 -5.251306e-13 0.000000e+00
6.621366e-02 -4.549608e-13 0.000000e+00
6.963999e-02 -5.425841e-13 0.000000e+00
7.329698e-02 -4.731232e-13 0.000000e+00
7.687160e-02 -4.502973e-13 0.000000e+00
8.006288e-02 -3.956054e-13 0.000000e+00
8.268664e-02 -2.866022e-13 0.000000e+00
8.463781e-02 -3.026377e-13 0.000000e+00
8.597093e-02 -1.211143e-13 0.000000e+00
8.679267e-02 -1.633892e-13 0.000000e+00
8.732453e-02 -4.593731e-14 0.000000e+00
8.771972e-02 -7.797503e-14 0.000000e+00
8.817299e-02 -5.381450e-14 0.000000e+00
8.868895e-02 -1.516201e-13 0.000000e+00
8.921259e-02 -6.724198e-14 0.000000e+00
8.954149e-02 -9.623535e-14 0.000000e+00
8.930994e-02 3.799025e-14 0.000000e+00
8.830321e-02 4.703289e-14 0.000000e+00
8.604572e-02 1.293795e-13 0.000000e+00
8.165934e-02 1.533354e-13 0.000000e+00
7.577275e-02 2.442331e-13 0.000000e+00
6.271625e-02 2.960571e-13 0.000000e+00
4.707003e-02 3.806314e-13 0.000000e+00
0.000000e+00 9.762490e-13 0.000000e+00
0.000000e+00 -3.455354e-14 0.000000e+00
2.074114e-02 5.824145e-14 0.000000e+00
3.307528e-02 1.136908e-13 0.000000e+00
4.236325e-02 1.659792e-13 0.000000e+00
4.874143e-02 8.294373e-14 0.000000e+00
5.349633e-02 -1.034998e-13 0.000000e+00
5.666515e-02 -3.878856e-13 0.000000e+00
5.855263e-02 -5.161495e-13 0.000000e+00
5.927322e-02 -7.323079e-13 0.000000e+00
5.921157e-02 -7.624706e-13 0.000000e+00
5.866539e-02 -7.950511e-13 0.000000e+00
5.809491e-02 -9.950210e-13 0.000000e+00
5.785603e-02 -9.804347e-13 0.000000e+00
5.797712e-02 -1.025029e-12 0.000000e+00
5.849339e-02 -8.805439e-13 0.000000e+00
5.948941e-02 -6.249432e-13 0.000000e+00
6.106853e-02 -5.550963e-13 0.000000e+00
6.331727e-02 -4.362712e-13 0.000000e+00
6.621366e-02 -3.743988e-13 0.000000e+00
6.963999e-02 -4.554818e-13 0.000000e+00
7.329698e-02 -3.675848e-13 0.000000e+00
7.687160e-02 -3.315768e-13 0.000000e+00
8.006288e-02 -2.844795e-13 0.000000e+00
8.268664e-02 -1.721378e-13 0.000000e+00
8.463781e-02 -2.249472e-13 0.000000e+00
8.597093e-02 -6.115994e-14 0.000000e+00
8.679267e-02 -1.576583e-13 0.000000e+00
8.732453e-02 -5.791471e-14 0.000000e+00
8.771972e-02 -9.244344e-14 0.000000e+00
8.817299e-02 -3.506880e-14 0.000000e+00
8.868895e-02 -1.201224e-13 0.000000e+00
8.921259e-02 -3.440555e-14 0.000000e+00
8.954149e-02 -7.803519e-14 0.000000e+00
8.930994e-02 5.446393e-14 0.000000e+00
8.830321e-02 4.449129e-14 0.000000e+00
8.604572e-02 1.367705e-13 0.000000e+00
8.165934e-02 1.312643e-13 0.000000e+00
7.577275e-02 2.510369e-13 0.000000e+00
6.271625e-02 2.565001e-13 0.000000e+00
4.707003e-02 3.857983e-13 0.000000e+00
0.000000e+00 9.753420e-13 0.000000e+00
0.000000e+00 -8.366725e-14 0.000000e+00
2.074114e-02 -3.226238e-14 0.000000e+00
3.307528e-02 -5.313697e-16 0.000000e+00
4.236325e-02 9.257626e-14 0.000000e+00
4.874143e-02 1.296897e-13 0.000000e+00
5.349633e-02 1.786916e-13 0.000000e+00
5.666515e-02 1.140499e-13 0.000000e+00
5.855263e-02 1.593073e-13 0.000000e+00
5.927322e-02 5.814756e-15 0.000000e+00
5.921157e-02 -1.122536e-13 0.000000e+00
5.866539e-02 -1.926376e-13 0.000000e+00
5.809491e-02 -2.840764e-13 0.000000e+00
5.785603e-02 -2.000132e-13 0.000000e+00
5.797712e-02 -3.554299e-13 0.000000e+00
5.849339e-02 -3.248733e-13 0.000000e+00
5.948941e-02 -2.328611e-13 0.000000e+00
6.106853e-02 -2.747133e-13 0.000000e+00
6.331727e-02 -2.355951e-13 0.000000e+00
6.621366e-02 -1.960600e-13 0.000000e+00
6.963999e-02 -2.788066e-13 0.000000e+00
7.329698e-02 -2.088023e-13 0.000000e+00
7.687160e-02 -2.033202e-13 0.000000e+00
8.006288e-02 -1.768589e-13 0.000000e+00
8.268664e-02 -1.025775e-13 0.000000e+00
8.463781e-02 -1.593616e-13 0.000000e+00
8.597093e-02 -1.740911e-14 0.000000e+00
8.679267e-02 -9.914686e-14 0.000000e+00
8.732453e-02 -8.376136e-15 0.000000e+00
8.771972e-02 -4.197320e-14 0.000000e+00
8.817299e-02 2.788732e-15 0.000000e+00
8.868895e-02 -7.214322e-14 0.000000e+00
8.921259e-02 4.497631e-15 0.000000e+00
8.954149e-02 -4.926657e-14 0.000000e+00
8.930994e-02 5.984965e-14 0.000000e+00
8.830321e-02 4.468906e-14 0.000000e+00
8.604572e-02 1.170114e-13 0.000000e+00
8.165934e-02 1.296205e-13 0.000000e+00
7.577275e-02 2.069025e-13 0.000000e+00
6.271625e-02 2.506487e-13 0.000000e+00
4.707003e-02 3.075249e-13 0.000000e+00
0.000000e+00 8.363590e-13 0.000000e+00
0.000000e+00 -1.077966e-13 0.000000e+00
2.074114e-02 -7.653908e-14 0.000000e+00
3.307528e-02 -4.941283e-14 0.000000e+00
4.236325e-02 3.182637e-14 0.000000e+00
4.874143e-02 7.301141e-14 0.000000e+00
5.349633e-02 2.030328e-13 0.000000e+00
5.666515e-02 2.092804e-13 0.000000e+00
5.855263e-02 3.125136e-13 0.000000e+00
5.927322e-02 2.172756e-13 0.000000e+00
5.921157e-02 1.412018e-13 0.000000e+00
5.866539e-02 6.043442e-14 0.000000e+00
5.809491e-02 5.106580e-14 0.000000e+00
5.785603e-02 1.014188e-13 0.000000e+00
5.797712e-02 -3.905106e-14 0.000000e+00
5.849339e-02 -4.106251e-14 0.000000e+00
5.948941e-02 -1.589902e-14 0.000000e+00
6.106853e-02 -1.059963e-13 0.000000e+00
6.331727e-02 -7.941537e-14 0.000000e+00
6.621366e-02 -7.458100e-14 0.000000e+00
6.963999e-02 -1.424160e-13 0.000000e+00
7.329698e-02 -1.146097e-13 0.000000e+00
7.687160e-02 -1.124892e-13 0.000000e+00
8.006288e-02 -1.255413e-13 0.000000e+00
8.268664e-02 -7.990747e-14 0.000000e+00
8.463781e-02 -1.151408e-13 0.000000e+00
8.597093e-02 5.113556e-16 0.000000e+00
8.679267e-02 -5.242317e-14 0.000000e+00
8.732453e-02 2.611315e-14 0.000000e+00
8.771972e-02 6.226619e-15 0.000000e+00
8.817299e-02 1.731448e-14 0.000000e+00
8.868895e-02 -3.462907e-14 0.000000e+00
8.921259e-02 1.603186e-14 0.000000e+00
8.954149e-02 -4.184233e-14 0.000000e+00
8.930994e-02 5.902689e-14 0.000000e+00
8.830321e-02 5.513521e-15 0.000000e+00
8.604572e-02 1.022591e-13 0.000000e+00
8.165934e-02 5.662348e-14 0.000000e+00
7.577275e-02 1.724833e-13 0.000000e+00
6.271625e-02 1.213690e-13 0.000000e+00
4.707003e-02 2.539874e-13 0.000000e+00
0.000000e+00 5.408609e-13 0.000000e+00
0.000000e+00 0.000000e+00 0.000000e+00
2.074114e-02 0.000000e+00 0.000000e+00
3.307528e-02 0.000000e+00 0.000000e+00
4.236325e-02 0.000000e+00 0.000000e+00
4.874143e-02 0.000000e+00 0.000000e+00
5.349633e-02 0.000000e+00 0.000000e+00
5.666515e-02 0.000000e+00 0.000000e+00
5.855263e-02 0.000000e+00 0.000000e+00
5.927322e-02 0.000000e+00 0.000000e+00
5.921157e-02 0.000000e+00 0.000000e+00
5.866539e-02 0.000000e+00 0.000000e+00
5.809491e-02 0.000000e+00 0.000000e+00
5.785603e-02 0.000000e+00 0.000000e+00
5.797712e-02 0.000000e+00 0.000000e+00
5.849339e-02 0.000000e+00 0.000000e+00
5.948941e-02 0.000000e+00 0.000000e+00
6.106853e-02 0.000000e+00 0.000000e+00
6.331727e-02 0.000000e+00 0.000000e+00
6.621366e-02 0.000000e+00 0.000000e+00
6.963999e-02 0.000000e+00 0.000000e+00
7.329698e-02 0.000000e+00 0.000000e+00
7.687160e-02 0.000000e+00 0.000000e+00
8.006288e-02 0.000000e+00 0.000000e+00
8.268664e-02 0.000000e+00 0.000000e+00
8.463781e-02 0.000000e+00 0.000000e+00
8.597093e-02 0.000000e+00 0.000000e+00
8.679267e-02 0.000000e+00 0.000000e+00
8.732453e-02 0.000000e+00 0.000000e+00
8.771972e-02 0.000000e+00 0.000000e+00
8.817299e-02 0.000000e+00 0.000000e+00
8.868895e-02 0.000000e+00 0.000000e+00
8.921259e-02 0.000000e+00 0.000000e+00
8.954149e-02 0.000000e+00 0.000000e+00
8.930994e-02 0.000000e+00 0.000000e+00
8.830321e-02 0.000000e+00 0.000000e+00
8.604572e-02 0.000000e+00 0.000000e+00
8.165934e-02 0.000000e+00 0.000000e+00
7.577275e-02 0.000000e+00 0.000000e+00
6.271625e-02 0.000000e+00 0.000000e+00
4.707003e-02 0.000000e+00 0.000000e+00
0.000000e+00 0.000000e+00 0.000000e+00
0.000000e+00 0.000000e+00 -1.903420e-02
4.483479e-03 0.000000e+00 -1.521799e-02
1.004223e-02 0.000000e+00 -1.093039e-02
1.468166e-02 0.000000e+00 -9.146509e-03
1.883044e-02 0.000000e+00 -7.237806e-03
2.175763e-02 0.000000e+00 -5.874115e-03
2.354922e-02 0.000000e+00 -4.459235e-03
2.395440e-02 0.000000e+00 -3.225878e-03
2.331636e-02 0.000000e+00 -2.249254e-03
2.191001e-02 0.000000e+00 -1.679662e-03
2.038674e-02 0.000000e+00 -1.515038e-03
1.896921e-02 0.000000e+00 -1.709995e-03
1.778525e-02 0.000000e+00 -2.043059e-03
1.682577e-02 0.000000e+00 -2.351609e-03
1.604195e-02 0.000000e+00 -2.689498e-03
1.540640e-02 0.000000e+00 -3.099071e-03
1.499441e-02 0.000000e+00 -3.614984e-03
1.487947e-02 0.000000e+00 -4.163351e-03
1.506404e-02 0.000000e+00 -4.682010e-03
1.557916e-02 0.000000e+00 -5.044893e-03
1.633783e-02 0.000000e+00 -5.173763e-03
1.730626e-02 0.000000e+00 -5.050707e-03
1.830064e-02 0.000000e+00 -4.725103e-03
1.928292e-02 0.000000e+00 -4.269587e-03
2.011914e-02 0.000000e+00 -3.789116e-03
2.087164e-02 0.000000e+00 -3.367576e-03
2.151920e-02 0.000000e+00 -3.105557e-03
2.231262e-02 0.000000e+00 -3.032866e-03
2.335171e-02 0.000000e+00 -3.149313e-03
2.488209e-02 0.000000e+00 -3.357998e-03
2.675292e-02 0.000000e+00 -3.508311e-03
2.894188e-02 0.000000e+00 -3.518600e-03
3.107331e-02 0.000000e+00 -3.240902e-03
3.303450e-02 0.000000e+00 -2.619819e-03
3.427169e-02 0.000000e+00 -1.839601e-03
3.467251e-02 0.000000e+00 1.770718e-05
3.354214e-02 0.000000e+00 9.133536e-04
3.085427e-02 0.000000e+00 5.813630e-03
2.500699e-02 0.000000e+00 7.334803e-03
1.632608e-02 0.000000e+00 2.189374e-02
0.000000e+00 0.000000e+00 4.055308e-02
0.000000e+00 -3.011551e-13 -1.903420e-02
4.483479e-03 -3.337759e-13 -1.521799e-02
1.004223e-02 -3.098308e-13 -1.093039e-02
1.468166e-02 -2.636877e-13 -9.146509e-03
1.883044e-02 -1.330533e-13 -7.237806e-03
2.175763e-02 1.651998e-13 -5.874115e-03
2.354922e-02 4.403132e-13 -4.459235e-03
2.395440e-02 6.857417e-13 -3.225878e-03
2.331636e-02 7.404436e-13 -2.249254e-03
2.191001e-02 5.611882e-13 -1.679662e-03
2.038674e-02 4.254152e-13 -1.515038e-03
1.896921e-02 4.530692e-13 -1.709995e-03
1.778525e-02 4.686413e-13 -2.043059e-03
1.682577e-02 1.965727e-13 -2.351609e-03
1.604195e-02 1.180333e-13 -2.689498e-03
1.540640e-02 -1.031343e-13 -3.099071e-03
1.499441e-02 -1.757406e-13 -3.614984e-03
1.487947e-02 -1.655134e-13 -4.163351e-03
1.506404e-02 -1.619804e-13 -4.682010e-03
1.557916e-02 -7.321923e-14 -5.044893e-03
1.633783e-02 1.957447e-14 -5.173763e-03
1.730626e-02 -7.324006e-14 -5.050707e-03
1.830064e-02 -5.580246e-14 -4.725103e-03
1.928292e-02 -2.335124e-13 -4.269587e-03
2.011914e-02 -2.339127e-13 -3.789116e-03
2.087164e-02 -4.192693e-13 -3.367576e-03
2.151920e-02 -4.908481e-13 -3.105557e-03
2.231262e-02 -4.187785e-13 -3.032866e-03
2.335171e-02 -3.184416e-13 -3.149313e-03
2.488209e-02 -1.586654e-14 -3.357998e-03
2.675292e-02 2.376536e-13 -3.508311e-03
2.894188e-02 3.731227e-13 -3.518600e-03
3.107331e-02 3.127309e-13 -3.240902e-03
3.303450e-02 3.330533e-13 -2.619819e-03
3.427169e-02 1.432201e-13 -1.839601e-03
3.467251e-02 2.240165e-13 1.770718e-05
3.354214e-02 4.491309e-14 9.133536e-04
3.085427e-02 1.577110e-13 5.813630e-03
2.500699e-02 -6.364777e-14 7.334803e-03
1.632608e-02 -4.853807e-14 2.189374e-02
0.000000e+00 -1.560555e-13 4.055308e-02
0.000000e+00 -4.462686e-13 -1.903420e-02
4.483479e-03 -5.137504e-13 -1.521799e-02
1.004223e-02 -4.929840e-13 -1.093039e-02
1.468166e-02 -4.576510e-13 -9.146509e-03
1.883044e-02 -3.050801e-13 -7.237806e-03
2.175763e-02 7.343049e-14 -5.874115e-03
2.354922e-02 4.221893e-13 -4.459235e-03
2.395440e-02 7.324944e-13 -3.225878e-03
2.331636e-02 8.259514e-13 -2.249254e-03
2.191001e-02 6.151840e-13 -1.679662e-03
2.038674e-02 4.735728e-13 -1.515038e-03
1.896921e-02 4.720983e-13 -1.709995e-03
1.778525e-02 5.287367e-13 -2.043059e-03
1.682577e-02 1.728651e-13 -2.351609e-03
1.604195e-02 1.059823e-13 -2.689498e-03
1.540640e-02 -1.967813e-13 -3.099071e-03
1.499441e-02 -2.714128e-13 -3.614984e-03
1.487947e-02 -2.660218e-13 -4.163351e-03
1.506404e-02 -2.224408e-13 -4.682010e-03
1.557916e-02 -1.321586e-13 -5.044893e-03
1.633783e-02 2.056952e-14 -5.173763e-03
1.730626e-02 -9.159944e-14 -5.050707e-03
1.830064e-02 1.833991e-14 -4.725103e-03
1.928292e-02 -1.911831e-13 -4.269587e-03
2.011914e-02 -9.274601e-14 -3.789116e-03
2.087164e-02 -2.946072e-13 -3.367576e-03
2.151920e-02 -3.391864e-13 -3.105557e-03
2.231262e-02 -3.748264e-13 -3.032866e-03
2.335171e-02 -3.693631e-13 -3.149313e-03
2.488209e-02 -2.059774e-13 -3.357998e-03
2.675292e-02 1.321008e-15 -3.508311e-03
2.894188e-02 1.965766e-13 -3.518600e-03
3.107331e-02 1.850789e-13 -3.240902e-03
3.303450e-02 3.355549e-13 -2.619819e-03
3.427169e-02 1.883348e-13 -1.839601e-03
3.467251e-02 2.869001e-13 1.770718e-05
3.354214e-02 1.167868e-13 9.133536e-04
3.085427e-02 1.696375e-13 5.813630e-03
2.500699e-02 5.880694e-14 7.334803e-03
1.632608e-02 -5.594773e-14 2.189374e-02
0.000000e+00 -1.198600e-13 4.055308e-02
0.000000e+00 -3.389022e-13 -1.903420e-02
4.483479e-03 -4.181618e-13 -1.521799e-02
1.004223e-02 -4.422552e-13 -1.093039e-02
1.468166e-02 -4.729043e-13 -9.146509e-03
1.883044e-02 -4.184672e-13 -7.237806e-03
2.175763e-02 -2.520865e-13 -5.874115e-03
2.354922e-02 -8.764025e-14 -4.459235e-03
2.395440e-02 4.626902e-14 -3.225878e-03
2.331636e-02 1.513963e-13 -2.249254e-03
2.191001e-02 7.397104e-14 -1.679662e-03
2.038674e-02 8.121025e-14 -1.515038e-03
1.896921e-02 2.705375e-14 -1.709995e-03
1.778525e-02 9.209974e-14 -2.043059e-03
1.682577e-02 -1.058040e-13 -2.351609e-03
1.604195e-02 -3.922043e-14 -2.689498e-03
1.540640e-02 -2.507288e-13 -3.099071e-03
1.499441e-02 -2.638849e-13 -3.614984e-03
1.487947e-02 -2.272581e-13 -4.163351e-03
1.506404e-02 -2.166925e-13 -4.682010e-03
1.557916e-02 -1.331480e-13 -5.044893e-03
1.633783e-02 3.139524e-14 -5.173763e-03
1.730626e-02 -5.831338e-14 -5.050707e-03
1.830064e-02 1.025023e-13 -4.725103e-03
1.928292e-02 -4.309241e-14 -4.269587e-03
2.011914e-02 1.301239e-13 -3.789116e-03
2.087164e-02 -8.839462e-15 -3.367576e-03
2.151920e-02 -3.437644e-14 -3.105557e-03
2.231262e-02 -9.860675e-14 -3.032866e-03
2.335171e-02 -2.810410e-13 -3.149313e-03
2.488209e-02 -3.504163e-13 -3.357998e-03
2.675292e-02 -3.449457e-13 -3.508311e-03
2.894188e-02 -1.582288e-13 -3.518600e-03
3.107331e-02 -1.001786e-13 -3.240902e-03
3.303450e-02 1.975393e-13 -2.619819e-03
3.427169e-02 1.193721e-13 -1.839601e-03
3.467251e-02 2.977460e-13 1.770718e-05
3.354214e-02 8.228229e-14 9.133536e-04
3.085427e-02 1.669095e-13 5.813630e-03
2.500699e-02 2.692262e-14 7.334803e-03
1.632608e-02 4.062600e-14 2.189374e-02
0.000000e+00 -8.931385e-14 4.055308e-02
0.000000e+00 -2.143296e-13 -1.903420e-02
4.483479e-03 -2.579920e-13 -1.521799e-02
1.004223e-02 -2.705099e-13 -1.093039e-02
1.468166e-02 -3.469657e-13 -9.146509e-03
1.883044e-02 -4.099882e-13 -7.237806e-03
2.175763e-02 -4.962411e-13 -5.874115e-03
2.354922e-02 -5.376678e-13 -4.459235e-03
2.395440e-02 -5.876330e-13 -3.225878e-03
2.331636e-02 -4.915562e-13 -2.249254e-03
2.191001e-02 -4.331066e-13 -1.679662e-03
2.038674e-02 -2.915467e-13 -1.515038e-03
1.896921e-02 -3.654413e-13 -1.709995e-03
1.778525e-02 -2.963550e-13 -2.043059e-03
1.682577e-02 -3.334349e-13 -2.351609e-03
1.604195e-02 -1.590780e-13 -2.689498e-03
1.540640e-02 -2.440059e-13 -3.099071e-03
1.499441e-02 -1.945461e-13 -3.614984e-03
1.487947e-02 -1.379249e-13 -4.163351e-03
1.506404e-02 -1.410891e-13 -4.682010e-03
1.557916e-02 -9.992022e-14 -5.044893e-03
1.633783e-02 2.823636e-14 -5.173763e-03
1.730626e-02 -6.904132e-14 -5.050707e-03
1.830064e-02 7.236503e-14 -4.725103e-03
1.928292e-02 -9.059816e-14 -4.269587e-03
2.011914e-02 6.887279e-14 -3.789116e-03
2.087164e-02 -8.087790e-14 -3.367576e-03
2.151920e-02 -1.002977e-13 -3.105557e-03
2.231262e-02 -1.564778e-13 -3.032866e-03
2.335171e-02 -2.646681e-13 -3.149313e-03
2.488209e-02 -2.845723e-13 -3.357998e-03
2.675292e-02 -2.588322e-13 -3.508311e-03
2.894188e-02 -1.502998e-13 -3.518600e-03
3.107331e-02 -1.255608e-13 -3.240902e-03
3.303450e-02 9.626401e-14 -2.619819e-03
3.427169e-02 5.450292e-14 -1.839601e-03
3.467251e-02 2.019733e-13 1.770718e-05
3.354214e-02 6.266099e-14 9.133536e-04
3.085427e-02 1.232369e-13 5.813630e-03
2.500699e-02 4.759704e-14 7.334803e-03
1.632608e-02 2.601163e-14 2.189374e-02
0.000000e+00 -3.576257e-14 4.055308e-02
0.000000e+00 -1.421092e-13 -1.903420e-02
4.483479e-03 -1.473144e-13 -1.521799e-02
1.004223e-02 -1.338446e-13 -1.093039e-02
1.468166e-02 -1.953206e-13 -9.146509e-03
1.883044e-02 -2.595887e-13 -7.237806e-03
2.175763e-02 -3.724625e-13 -5.874115e-03
2.354922e-02 -4.497778e-13 -4.459235e-03
2.395440e-02 -5.177557e-13 -3.225878e-03
2.331636e-02 -4.775432e-13 -2.249254e-03