# vtk DataFile Version 3.0
vtk output
ASCII
DATASET UNSTRUCTURED_GRID
POINTS 11767 float
0.000000e+00 0.000000e+00 0.000000e+00
1.460000e-02 0.000000e+00 0.000000e+00
2.920000e-02 0.000000e+00 0.000000e+00
4.380000e-02 0.000000e+00 0.000000e+00
5.840000e-02 0.000000e+00 0.000000e+00
7.300000e-02 0.000000e+00 0.000000e+00
8.760000e-02 0.000000e+00 0.000000e+00
1.022000e-01 0.000000e+00 0.000000e+00
1.168000e-01 0.000000e+00 0.000000e+00
1.314000e-01 0.000000e+00 0.000000e+00
1.460000e-01 0.000000e+00 0.000000e+00
1.606000e-01 0.000000e+00 0.000000e+00
1.752000e-01 0.000000e+00 0.000000e+00
1.898000e-01 0.000000e+00 0.000000e+00
2.044000e-01 0.000000e+00 0.000000e+00
2.190000e-01 0.000000e+00 0.000000e+00
2.336000e-01 0.000000e+00 0.000000e+00
2.482000e-01 0.000000e+00 0.000000e+00
2.628000e-01 0.000000e+00 0.000000e+00
2.774000e-01 0.000000e+00 0.000000e+00
2.920000e-01 0.000000e+00 0.000000e+00
3.066000e-01 0.000000e+00 0.000000e+00
3.212000e-01 0.000000e+00 0.000000e+00
3.358000e-01 0.000000e+00 0.000000e+00
3.504000e-01 0.000000e+00 0.000000e+00
3.650000e-01 0.000000e+00 0.000000e+00
3.796000e-01 0.000000e+00 0.000000e+00
3.942000e-01 0.000000e+00 0.000000e+00
4.088000e-01 0.000000e+00 0.000000e+00
4.234000e-01 0.000000e+00 0.000000e+00
4.380000e-01 0.000000e+00 0.000000e+00
4.526000e-01 0.000000e+00 0.000000e+00
4.672000e-01 0.000000e+00 0.000000e+00
4.818000e-01 0.000000e+00 0.000000e+00
4.964000e-01 0.000000e+00 0.000000e+00
5.110000e-01 0.000000e+00 0.000000e+00
5.256000e-01 0.000000e+00 0.000000e+00
5.402000e-01 0.000000e+00 0.000000e+00
5.548000e-01 0.000000e+00 0.000000e+00
5.694000e-01 0.000000e+00 0.000000e+00
5.840000e-01 0.000000e+00 0.000000e+00
0.000000e+00 1.460000e-02 0.000000e+00
1.460000e-02 1.460000e-02 0.000000e+00
2.920000e-02 1.460000e-02 0.000000e+00
4.380000e-02 1.460000e-02 0.000000e+00
5.840000e-02 1.460000e-02 0.000000e+00
7.300000e-02 1.460000e-02 0.000000e+00
8.760000e-02 1.460000e-02 0.000000e+00
1.022000e-01 1.460000e-02 0.000000e+00
1.168000e-01 1.460000e-02 0.000000e+00
1.314000e-01 1.460000e-02 0.000000e+00
1.460000e-01 1.460000e-02 0.000000e+00
1.606000e-01 1.460000e-02 0.000000e+00
1.752000e-01 1.460000e-02 0.000000e+00
1.898000e-01 1.460000e-02 0.000000e+00
2.044000e-01 1.460000e-02 0.000000e+00
2.190000e-01 1.460000e-02 0.000000e+00
2.336000e-01 1.460000e-02 0.000000e+00
2.482000e-01 1.460000e-02 0.000000e+00
2.628000e-01 1.460000e-02 0.000000e+00
2.774000e-01 1.460000e-02 0.000000e+00
2.920000e-01 1.460000e-02 0.000000e+00
3.066000e-01 1.460000e-02 0.000000e+00
3.212000e-01 1.460000e-02 0.000000e+00
3.358000e-01 1.460000e-02 0.000000e+00
3.504000e-01 1.460000e-02 0.000000e+00
3.650000e-01 1.460000e-02 0.000000e+00
3.796000e-01 1.460000e-02 0.000000e+00
3.942000e-01 1.460000e-02 0.000000e+00
4.088000e-01 1.460000e-02 0.000000e+00
4.234000e-01 1.460000e-02 0.000000e+00
4.380000e-01 1.460000e-02 0.000000e+00
4.526000e-01 1.460000e-02 0.000000e+00
4.672000e-01 1.460000e-02 0.000000e+00
4.818000e-01 1.460000e-02 0.000000e+00
4.964000e-01 1.460000e-02 0.000000e+00
5.110000e-01 1.460000e-02 0.000000e+00
5.256000e-01 1.460000e-02 0.000000e+00
5.402000e-01 1.460000e-02 0.000000e+00
5.548000e-01 1.460000e-02 0.000000e+00
5.694000e-01 1.460000e-02 0.000000e+00
5.840000e-01 1.460000e-02 0.000000e+00
0.000000e+00 2.920000e-02 0.000000e+00
1.460000e-02 2.920000e-02 0.000000e+00
2.920000e-02 2.920000e-02 0.000000e+00
4.380000e-02 2.920000e-02 0.000000e+00
5.840000e-02 2.920000e-02 0.000000e+00
7.300000e-02 2.920000e-02 0.000000e+00
8.760000e-02 2.920000e-02 0.000000e+00
1.022000e-01 2.920000e-02 0.000000e+00
1.168000e-01 2.920000e-02 0.000000e+00
1.314000e-01 2.920000e-02 0.000000e+00
1.460000e-01 2.920000e-02 0.000000e+00
1.606000e-01 2.920000e-02 0.000000e+00
1.752000e-01 2.920000e-02 0.000000e+00
1.898000e-01 2.920000e-02 0.000000e+00
2.044000e-01 2.920000e-02 0.000000e+00
2.190000e-01 2.920000e-02 0.000000e+00
2.336000e-01 2.920000e-02 0.000000e+00
2.482000e-01 2.920000e-02 0.000000e+00
2.628000e-01 2.920000e-02 0.000000e+00
2.774000e-01 2.920000e-02 0.000000e+00
2.920000e-01 2.920000e-02 0.000000e+00
3.066000e-01 2.920000e-02 0.000000e+00
3.212000e-01 2.920000e-02 0.000000e+00
3.358000e-01 2.920000e-02 0.000000e+00
3.504000e-01 2.920000e-02 0.000000e+00
3.650000e-01 2.920000e-02 0.000000e+00
3.796000e-01 2.920000e-02 0.000000e+00
3.942000e-01 2.920000e-02 0.000000e+00
4.088000e-01 2.920000e-02 0.000000e+00
4.234000e-01 2.920000e-02 0.000000e+00
4.380000e-01 2.920000e-02 0.000000e+00
4.526000e-01 2.920000e-02 0.000000e+00
4.672000e-01 2.920000e-02 0.000000e+00
4.818000e-01 2.920000e-02 0.000000e+00
4.964000e-01 2.920000e-02 0.000000e+00
5.110000e-01 2.920000e-02 0.000000e+00
5.256000e-01 2.920000e-02 0.000000e+00
5.402000e-01 2.920000e-02 0.000000e+00
5.548000e-01 2.920000e-02 0.000000e+00
5.694000e-01 2.920000e-02 0.000000e+00
5.840000e-01 2.920000e-02 0.000000e+00
0.000000e+00 4.380000e-02 0.000000e+00
1.460000e-02 4.380000e-02 0.000000e+00
2.920000e-02 4.380000e-02 0.000000e+00
4.380000e-02 4.380000e-02 0.000000e+00
5.840000e-02 4.380000e-02 0.000000e+00
7.300000e-02 4.380000e-02 0.000000e+00
8.760000e-02 4.380000e-02 0.000000e+00
1.022000e-01 4.380000e-02 0.000000e+00
1.168000e-01 4.380000e-02 0.000000e+00
1.314000e-01 4.380000e-02 0.000000e+00
1.460000e-01 4.380000e-02 0.000000e+00
1.606000e-01 4.380000e-02 0.000000e+00
1.752000e-01 4.380000e-02 0.000000e+00
1.898000e-01 4.380000e-02 0.000000e+00
2.044000e-01 4.380000e-02 0.000000e+00
2.190000e-01 4.380000e-02 0.000000e+00
2.336000e-01 4.380000e-02 0.000000e+00
2.482000e-01 4.380000e-02 0.000000e+00
2.628000e-01 4.380000e-02 0.000000e+00
2.774000e-01 4.380000e-02 0.000000e+00
2.920000e-01 4.380000e-02 0.000000e+00
3.066000e-01 4.380000e-02 0.000000e+00
3.212000e-01 4.380000e-02 0.000000e+00
3.358000e-01 4.380000e-02 0.000000e+00
3.504000e-01 4.380000e-02 0.000000e+00
3.650000e-01 4.380000e-02 0.000000e+00
3.796000e-01 4.380000e-02 0.000000e+00
3.942000e-01 4.380000e-02 0.000000e+00
4.088000e-01 4.380000e-02 0.000000e+00
4.234000e-01 4.380000e-02 0.000000e+00
4.380000e-01 4.380000e-02 0.000000e+00
4.526000e-01 4.380000e-02 0.000000e+00
4.672000e-01 4.380000e-02 0.000000e+00
4.818000e-01 4.380000e-02 0.000000e+00
4.964000e-01 4.380000e-02 0.000000e+00
5.110000e-01 4.380000e-02 0.000000e+00
5.256000e-01 4.380000e-02 0.000000e+00
5.402000e-01 4.380000e-02 0.000000e+00
5.548000e-01 4.380000e-02 0.000000e+00
5.694000e-01 4.380000e-02 0.000000e+00
5.840000e-01 4.380000e-02 0.000000e+00
0.000000e+00 5.840000e-02 0.000000e+00
1.460000e-02 5.840000e-02 0.000000e+00
2.920000e-02 5.840000e-02 0.000000e+00
4.380000e-02 5.840000e-02 0.000000e+00
5.840000e-02 5.840000e-02 0.000000e+00
7.300000e-02 5.840000e-02 0.000000e+00
8.760000e-02 5.840000e-02 0.000000e+00
1.022000e-01 5.840000e-02 0.000000e+00
1.168000e-01 5.840000e-02 0.000000e+00
1.314000e-01 5.840000e-02 0.000000e+00
1.460000e-01 5.840000e-02 0.000000e+00
1.606000e-01 5.840000e-02 0.000000e+00
1.752000e-01 5.840000e-02 0.000000e+00
1.898000e-01 5.840000e-02 0.000000e+00
2.044000e-01 5.840000e-02 0.000000e+00
2.190000e-01 5.840000e-02 0.000000e+00
2.336000e-01 5.840000e-02 0.000000e+00
2.482000e-01 5.840000e-02 0.000000e+00
2.628000e-01 5.840000e-02 0.000000e+00
2.774000e-01 5.840000e-02 0.000000e+00
2.920000e-01 5.840000e-02 0.000000e+00
3.066000e-01 5.840000e-02 0.000000e+00
3.212000e-01 5.840000e-02 0.000000e+00
3.358000e-01 5.840000e-02 0.000000e+00
3.504000e-01 5.840000e-02 0.000000e+00
3.650000e-01 5.840000e-02 0.000000e+00
3.796000e-01 5.840000e-02 0.000000e+00
3.942000e-01 5.840000e-02 0.000000e+00
4.088000e-01 5.840000e-02 0.000000e+00
4.234000e-01 5.840000e-02 0.000000e+00
4.380000e-01 5.840000e-02 0.000000e+00
4.526000e-01 5.840000e-02 0.000000e+00
4.672000e-01 5.840000e-02 0.000000e+00
4.818000e-01 5.840000e-02 0.000000e+00
4.964000e-01 5.840000e-02 0.000000e+00
5.110000e-01 5.840000e-02 0.000000e+00
5.256000e-01 5.840000e-02 0.000000e+00
5.402000e-01 5.840000e-02 0.000000e+00
5.548000e-01 5.840000e-02 0.000000e+00
5.694000e-01 5.840000e-02 0.000000e+00
5.840000e-01 5.840000e-02 0.000000e+00
0.000000e+00 7.300000e-02 0.000000e+00
1.460000e-02 7.300000e-02 0.000000e+00
2.920000e-02 7.300000e-02 0.000000e+00
4.380000e-02 7.300000e-02 0.000000e+00
5.840000e-02 7.300000e-02 0.000000e+00
7.300000e-02 7.300000e-02 0.000000e+00
8.760000e-02 7.300000e-02 0.000000e+00
1.022000e-01 7.300000e-02 0.000000e+00
1.168000e-01 7.300000e-02 0.000000e+00
1.314000e-01 7.300000e-02 0.000000e+00
1.460000e-01 7.300000e-02 0.000000e+00
1.606000e-01 7.300000e-02 0.000000e+00
1.752000e-01 7.300000e-02 0.000000e+00
1.898000e-01 7.300000e-02 0.000000e+00
2.044000e-01 7.300000e-02 0.000000e+00
2.190000e-01 7.300000e-02 0.000000e+00
2.336000e-01 7.300000e-02 0.000000e+00
2.482000e-01 7.300000e-02 0.000000e+00
2.628000e-01 7.300000e-02 0.000000e+00
2.774000e-01 7.300000e-02 0.000000e+00
2.920000e-01 7.300000e-02 0.000000e+00
3.066000e-01 7.300000e-02 0.000000e+00
3.212000e-01 7.300000e-02 0.000000e+00
3.358000e-01 7.300000e-02 0.000000e+00
3.504000e-01 7.300000e-02 0.000000e+00
3.650000e-01 7.300000e-02 0.000000e+00
3.796000e-01 7.300000e-02 0.000000e+00
3.942000e-01 7.300000e-02 0.000000e+00
4.088000e-01 7.300000e-02 0.000000e+00
4.234000e-01 7.300000e-02 0.000000e+00
4.380000e-01 7.300000e-02 0.000000e+00
4.526000e-01 7.300000e-02 0.000000e+00
4.672000e-01 7.300000e-02 0.000000e+00
4.818000e-01 7.300000e-02 0.000000e+00
4.964000e-01 7.300000e-02 0.000000e+00
5.110000e-01 7.300000e-02 0.000000e+00
5.256000e-01 7.300000e-02 0.000000e+00
5.402000e-01 7.300000e-02 0.000000e+00
5.548000e-01 7.300000e-02 0.000000e+00
5.694000e-01 7.300000e-02 0.000000e+00
5.840000e-01 7.300000e-02 0.000000e+00
0.000000e+00 8.760000e-02 0.000000e+00
1.460000e-02 8.760000e-02 0.000000e+00
2.920000e-02 8.760000e-02 0.000000e+00
4.380000e-02 8.760000e-02 0.000000e+00
5.840000e-02 8.760000e-02 0.000000e+00
7.300000e-02 8.760000e-02 0.000000e+00
8.760000e-02 8.760000e-02 0.000000e+00
1.022000e-01 8.760000e-02 0.000000e+00
[...]
POINT_DATA 11767
VECTORS Velocity float
0.000000e+00 0.000000e+00 0.000000e+00
2.971373e-02 0.000000e+00 0.000000e+00
5.759241e-02 0.000000e+00 0.000000e+00
8.666784e-02 0.000000e+00 0.000000e+00
1.153788e-01 0.000000e+00 0.000000e+00
1.442057e-01 0.000000e+00 0.000000e+00
1.734747e-01 0.000000e+00 0.000000e+00
2.034286e-01 0.000000e+00 0.000000e+00
2.336491e-01 0.000000e+00 0.000000e+00
2.632832e-01 0.000000e+00 0.000000e+00
2.909779e-01 0.000000e+00 0.000000e+00
3.152949e-01 0.000000e+00 0.000000e+00
3.349946e-01 0.000000e+00 0.000000e+00
3.492158e-01 0.000000e+00 0.000000e+00
3.574756e-01 0.000000e+00 0.000000e+00
3.596224e-01 0.000000e+00 0.000000e+00
3.557776e-01 0.000000e+00 0.000000e+00
3.462900e-01 0.000000e+00 0.000000e+00
3.317004e-01 0.000000e+00 0.000000e+00
3.127518e-01 0.000000e+00 0.000000e+00
2.903692e-01 0.000000e+00 0.000000e+00
2.656278e-01 0.000000e+00 0.000000e+00
2.396605e-01 0.000000e+00 0.000000e+00
2.137166e-01 0.000000e+00 0.000000e+00
1.891641e-01 0.000000e+00 0.000000e+00
1.673524e-01 0.000000e+00 0.000000e+00
1.493011e-01 0.000000e+00 0.000000e+00
1.355731e-01 0.000000e+00 0.000000e+00
1.259464e-01 0.000000e+00 0.000000e+00
1.195783e-01 0.000000e+00 0.000000e+00
1.152286e-01 0.000000e+00 0.000000e+00
1.116707e-01 0.000000e+00 0.000000e+00
1.077112e-01 0.000000e+00 0.000000e+00
1.022100e-01 0.000000e+00 0.000000e+00
9.457243e-02 0.000000e+00 0.000000e+00
8.432480e-02 0.000000e+00 0.000000e+00
7.176474e-02 0.000000e+00 0.000000e+00
5.913742e-02 0.000000e+00 0.000000e+00
4.374896e-02 0.000000e+00 0.000000e+00
3.047624e-02 0.000000e+00 0.000000e+00
0.000000e+00 0.000000e+00 0.000000e+00
0.000000e+00 -7.519872e-14 0.000000e+00
2.971373e-02 1.044494e-13 0.000000e+00
5.759241e-02 -3.836722e-14 0.000000e+00
8.666784e-02 7.760280e-14 0.000000e+00
1.153788e-01 -9.639941e-15 0.000000e+00
1.442057e-01 -1.081222e-15 0.000000e+00
1.734747e-01 5.290274e-14 0.000000e+00
2.034286e-01 -5.692536e-14 0.000000e+00
2.336491e-01 3.786010e-14 0.000000e+00
2.632832e-01 -1.042646e-14 0.000000e+00
2.909779e-01 2.615523e-14 0.000000e+00
3.152949e-01 -3.085931e-14 0.000000e+00
3.349946e-01 8.047752e-15 0.000000e+00
3.492158e-01 -4.508636e-14 0.000000e+00
3.574756e-01 4.209923e-14 0.000000e+00
3.596224e-01 -1.608166e-14 0.000000e+00
3.557776e-01 1.384384e-15 0.000000e+00
3.462900e-01 -2.510186e-14 0.000000e+00
3.317004e-01 1.420854e-14 0.000000e+00
3.127518e-01 -1.529073e-14 0.000000e+00
2.903692e-01 -2.946691e-14 0.000000e+00
2.656278e-01 3.321602e-14 0.000000e+00
2.396605e-01 -1.226336e-13 0.000000e+00
2.137166e-01 6.467705e-15 0.000000e+00
1.891641e-01 -7.474669e-14 0.000000e+00
1.673524e-01 9.437152e-15 0.000000e+00
1.493011e-01 -1.066505e-13 0.000000e+00
1.355731e-01 -1.112131e-14 0.000000e+00
1.259464e-01 -7.964944e-14 0.000000e+00
1.195783e-01 -9.954320e-14 0.000000e+00
1.152286e-01 -8.864508e-14 0.000000e+00
1.116707e-01 -6.331100e-14 0.000000e+00
1.077112e-01 -6.453569e-15 0.000000e+00
1.022100e-01 -2.466064e-14 0.000000e+00
9.457243e-02 -9.588828e-14 0.000000e+00
8.432480e-02 2.520263e-14 0.000000e+00
7.176474e-02 -7.017504e-14 0.000000e+00
5.913742e-02 3.414007e-14 0.000000e+00
4.374896e-02 -1.441561e-13 0.000000e+00
3.047624e-02 3.241638e-14 0.000000e+00
0.000000e+00 -2.810916e-14 0.000000e+00
0.000000e+00 -1.169963e-13 0.000000e+00
2.971373e-02 1.427038e-13 0.000000e+00
5.759241e-02 -1.338188e-13 0.000000e+00
8.666784e-02 1.289924e-14 0.000000e+00
1.153788e-01 5.250590e-14 0.000000e+00
1.442057e-01 -9.045575e-15 0.000000e+00
1.734747e-01 2.706455e-14 0.000000e+00
2.034286e-01 -4.788336e-14 0.000000e+00
2.336491e-01 7.909856e-14 0.000000e+00
2.632832e-01 -2.383230e-14 0.000000e+00
2.909779e-01 2.902491e-15 0.000000e+00
3.152949e-01 -2.955573e-14 0.000000e+00
3.349946e-01 -5.804426e-15 0.000000e+00
3.492158e-01 -7.217996e-14 0.000000e+00
3.574756e-01 3.038186e-14 0.000000e+00
3.596224e-01 -7.720992e-16 0.000000e+00
3.557776e-01 5.287480e-15 0.000000e+00
3.462900e-01 -2.872196e-14 0.000000e+00
3.317004e-01 1.386668e-14 0.000000e+00
3.127518e-01 2.925069e-15 0.000000e+00
2.903692e-01 -1.319867e-14 0.000000e+00
2.656278e-01 2.858858e-14 0.000000e+00
2.396605e-01 -1.246205e-13 0.000000e+00
2.137166e-01 2.670996e-14 0.000000e+00
1.891641e-01 -9.786827e-14 0.000000e+00
1.673524e-01 3.098984e-14 0.000000e+00
1.493011e-01 -4.195543e-14 0.000000e+00
1.355731e-01 -1.100254e-13 0.000000e+00
1.259464e-01 -3.108937e-14 0.000000e+00
1.195783e-01 -5.087389e-16 0.000000e+00
1.152286e-01 -2.078564e-13 0.000000e+00
1.116707e-01 -6.043002e-14 0.000000e+00
1.077112e-01 -8.023580e-14 0.000000e+00
1.022100e-01 -1.206399e-13 0.000000e+00
9.457243e-02 -4.089226e-14 0.000000e+00
8.432480e-02 5.829102e-15 0.000000e+00
7.176474e-02 4.388437e-14 0.000000e+00
5.913742e-02 3.219654e-14 0.000000e+00
4.374896e-02 -7.436151e-14 0.000000e+00
3.047624e-02 1.613477e-13 0.000000e+00
0.000000e+00 -2.627615e-13 0.000000e+00
0.000000e+00 1.009592e-13 0.000000e+00
2.971373e-02 -9.261877e-14 0.000000e+00
5.759241e-02 1.484241e-13 0.000000e+00
8.666784e-02 -5.124321e-14 0.000000e+00
1.153788e-01 -2.462417e-14 0.000000e+00
1.442057e-01 1.484471e-14 0.000000e+00
1.734747e-01 -1.504251e-14 0.000000e+00
2.034286e-01 2.057691e-14 0.000000e+00
2.336491e-01 8.899247e-15 0.000000e+00
2.632832e-01 -1.634707e-15 0.000000e+00
2.909779e-01 -2.868957e-14 0.000000e+00
3.152949e-01 -2.821817e-14 0.000000e+00
3.349946e-01 2.871486e-14 0.000000e+00
3.492158e-01 -7.783099e-14 0.000000e+00
3.574756e-01 5.772879e-14 0.000000e+00
3.596224e-01 -9.718743e-15 0.000000e+00
3.557776e-01 4.058337e-15 0.000000e+00
3.462900e-01 -1.937109e-14 0.000000e+00
3.317004e-01 2.058120e-14 0.000000e+00
3.127518e-01 -9.803983e-15 0.000000e+00
2.903692e-01 1.154725e-14 0.000000e+00
2.656278e-01 -3.084662e-14 0.000000e+00
2.396605e-01 -9.241768e-14 0.000000e+00
2.137166e-01 2.452992e-14 0.000000e+00
1.891641e-01 -1.262191e-13 0.000000e+00
1.673524e-01 6.922286e-14 0.000000e+00
1.493011e-01 -9.081286e-14 0.000000e+00
1.355731e-01 -4.995400e-14 0.000000e+00
1.259464e-01 -9.920488e-14 0.000000e+00
1.195783e-01 9.471338e-14 0.000000e+00
1.152286e-01 -3.273126e-13 0.000000e+00
1.116707e-01 7.280136e-14 0.000000e+00
1.077112e-01 -2.282513e-13 0.000000e+00
1.022100e-01 3.673924e-14 0.000000e+00
9.457243e-02 -1.174123e-13 0.000000e+00
8.432480e-02 4.206652e-14 0.000000e+00
7.176474e-02 1.620229e-14 0.000000e+00
5.913742e-02 2.083353e-14 0.000000e+00
4.374896e-02 -1.139921e-13 0.000000e+00
3.047624e-02 6.601939e-14 0.000000e+00
0.000000e+00 -2.591619e-13 0.000000e+00
0.000000e+00 2.104370e-13 0.000000e+00
2.971373e-02 -1.203958e-13 0.000000e+00
5.759241e-02 4.283755e-14 0.000000e+00
8.666784e-02 3.842930e-14 0.000000e+00
1.153788e-01 -3.620624e-14 0.000000e+00
1.442057e-01 2.842935e-14 0.000000e+00
1.734747e-01 -3.998589e-14 0.000000e+00
2.034286e-01 4.981885e-14 0.000000e+00
2.336491e-01 -7.083556e-16 0.000000e+00
2.632832e-01 6.638398e-15 0.000000e+00
2.909779e-01 -4.368840e-15 0.000000e+00
3.152949e-01 1.064422e-14 0.000000e+00
3.349946e-01 1.329017e-14 0.000000e+00
3.492158e-01 -6.588751e-14 0.000000e+00
3.574756e-01 3.641817e-14 0.000000e+00
3.596224e-01 -1.493611e-14 0.000000e+00
3.557776e-01 -2.513929e-14 0.000000e+00
3.462900e-01 2.621330e-14 0.000000e+00
3.317004e-01 -1.372298e-14 0.000000e+00
3.127518e-01 1.764925e-14 0.000000e+00
2.903692e-01 2.224329e-14 0.000000e+00
2.656278e-01 -4.331168e-14 0.000000e+00
2.396605e-01 -7.114771e-14 0.000000e+00
2.137166e-01 1.501690e-15 0.000000e+00
1.891641e-01 -1.113496e-13 0.000000e+00
1.673524e-01 7.193192e-14 0.000000e+00
1.493011e-01 -5.108045e-14 0.000000e+00
1.355731e-01 -1.070709e-13 0.000000e+00
1.259464e-01 -1.555381e-14 0.000000e+00
1.195783e-01 3.627149e-14 0.000000e+00
1.152286e-01 -2.198406e-13 0.000000e+00
1.116707e-01 -1.632966e-14 0.000000e+00
1.077112e-01 1.183330e-14 0.000000e+00
1.022100e-01 -9.601430e-14 0.000000e+00
9.457243e-02 5.171775e-15 0.000000e+00
8.432480e-02 6.679282e-15 0.000000e+00
7.176474e-02 -5.532521e-14 0.000000e+00
5.913742e-02 4.629697e-14 0.000000e+00
4.374896e-02 -3.213275e-14 0.000000e+00
3.047624e-02 8.674168e-14 0.000000e+00
0.000000e+00 -4.489571e-14 0.000000e+00
0.000000e+00 -2.816875e-13 0.000000e+00
2.971373e-02 2.238967e-13 0.000000e+00
5.759241e-02 -1.608868e-13 0.000000e+00
8.666784e-02 4.523210e-14 0.000000e+00
1.153788e-01 2.109637e-14 0.000000e+00
1.442057e-01 -3.478382e-14 0.000000e+00
1.734747e-01 3.382739e-14 0.000000e+00
2.034286e-01 3.206337e-14 0.000000e+00
2.336491e-01 2.715583e-15 0.000000e+00
2.632832e-01 -1.697080e-14 0.000000e+00
2.909779e-01 -1.054048e-14 0.000000e+00
3.152949e-01 2.053550e-14 0.000000e+00
3.349946e-01 1.432006e-14 0.000000e+00
3.492158e-01 -6.117227e-14 0.000000e+00
3.574756e-01 2.717503e-14 0.000000e+00
3.596224e-01 -4.393346e-16 0.000000e+00
3.557776e-01 -3.396885e-14 0.000000e+00
3.462900e-01 6.554610e-15 0.000000e+00
3.317004e-01 -2.331524e-14 0.000000e+00
3.127518e-01 -1.951066e-14 0.000000e+00
2.903692e-01 1.750233e-14 0.000000e+00
2.656278e-01 -4.613914e-14 0.000000e+00
2.396605e-01 -4.971931e-14 0.000000e+00
2.137166e-01 -5.277535e-15 0.000000e+00
1.891641e-01 -1.153952e-14 0.000000e+00
1.673524e-01 -5.405729e-14 0.000000e+00
1.493011e-01 7.139738e-14 0.000000e+00
1.355731e-01 -8.473289e-14 0.000000e+00
1.259464e-01 -5.575107e-14 0.000000e+00
1.195783e-01 1.538080e-14 0.000000e+00
1.152286e-01 -1.244970e-13 0.000000e+00
1.116707e-01 -1.446213e-14 0.000000e+00
1.077112e-01 1.807709e-14 0.000000e+00
1.022100e-01 -5.609365e-14 0.000000e+00
9.457243e-02 3.501885e-14 0.000000e+00
8.432480e-02 4.101957e-15 0.000000e+00
7.176474e-02 -9.639442e-14 0.000000e+00
5.913742e-02 4.180140e-14 0.000000e+00
4.374896e-02 -1.656454e-13 0.000000e+00
3.047624e-02 2.609385e-13 0.000000e+00
0.000000e+00 -1.918513e-13 0.000000e+00
0.000000e+00 0.000000e+00 0.000000e+00
2.971373e-02 0.000000e+00 0.000000e+00
5.759241e-02 0.000000e+00 0.000000e+00
8.666784e-02 0.000000e+00 0.000000e+00
1.153788e-01 0.000000e+00 0.000000e+00
1.442057e-01 0.000000e+00 0.000000e+00
1.734747e-01 0.000000e+00 0.000000e+00
2.034286e-01 0.000000e+00 0.000000e+00
2.336491e-01 0.000000e+00 0.000000e+00
2.632832e-01 0.000000e+00 0.000000e+00
2.909779e-01 0.000000e+00 0.000000e+00
3.152949e-01 0.000000e+00 0.000000e+00
3.349946e-01 0.000000e+00 0.000000e+00
3.492158e-01 0.000000e+00 0.000000e+00
3.574756e-01 0.000000e+00 0.000000e+00
3.596224e-01 0.000000e+00 0.000000e+00
3.557776e-01 0.000000e+00 0.000000e+00
3.462900e-01 0.000000e+00 0.000000e+00
3.317004e-01 0.000000e+00 0.000000e+00
3.127518e-01 0.000000e+00 0.000000e+00
2.903692e-01 0.000000e+00 0.000000e+00
2.656278e-01 0.000000e+00 0.000000e+00
2.396605e-01 0.000000e+00 0.000000e+00
2.137166e-01 0.000000e+00 0.000000e+00
1.891641e-01 0.000000e+00 0.000000e+00
1.673524e-01 0.000000e+00 0.000000e+00
1.493011e-01 0.000000e+00 0.000000e+00
1.355731e-01 0.000000e+00 0.000000e+00
1.259464e-01 0.000000e+00 0.000000e+00
1.195783e-01 0.000000e+00 0.000000e+00
1.152286e-01 0.000000e+00 0.000000e+00
1.116707e-01 0.000000e+00 0.000000e+00
1.077112e-01 0.000000e+00 0.000000e+00
1.022100e-01 0.000000e+00 0.000000e+00
9.457243e-02 0.000000e+00 0.000000e+00
8.432480e-02 0.000000e+00 0.000000e+00
7.176474e-02 0.000000e+00 0.000000e+00
5.913742e-02 0.000000e+00 0.000000e+00
4.374896e-02 0.000000e+00 0.000000e+00
3.047624e-02 0.000000e+00 0.000000e+00
0.000000e+00 0.000000e+00 0.000000e+00
0.000000e+00 0.000000e+00 -2.532998e-02
9.725719e-03 0.000000e+00 -2.581191e-02
2.669414e-02 0.000000e+00 -2.793008e-02
4.822900e-02 0.000000e+00 -2.950205e-02
7.229954e-02 0.000000e+00 -2.982296e-02
9.796947e-02 0.000000e+00 -3.058146e-02
1.252463e-01 0.000000e+00 -3.151911e-02
1.540305e-01 0.000000e+00 -3.235342e-02
1.838470e-01 0.000000e+00 -3.248329e-02
2.135813e-01 0.000000e+00 -3.139729e-02
2.416603e-01 0.000000e+00 -2.877206e-02
2.664389e-01 0.000000e+00 -2.471843e-02
2.865693e-01 0.000000e+00 -1.957278e-02
3.011024e-01 0.000000e+00 -1.373788e-02
3.094932e-01 0.000000e+00 -7.585433e-03
3.115838e-01 0.000000e+00 -1.440246e-03
3.075659e-01 0.000000e+00 4.425937e-03
2.979016e-01 0.000000e+00 9.804268e-03
2.832534e-01 0.000000e+00 1.449486e-02
2.645357e-01 0.000000e+00 1.826410e-02
2.430040e-01 0.000000e+00 2.088901e-02
2.201130e-01 0.000000e+00 2.229615e-02
1.971930e-01 0.000000e+00 2.252706e-02
1.752205e-01 0.000000e+00 2.163769e-02
1.547511e-01 0.000000e+00 1.967776e-02
1.361372e-01 0.000000e+00 1.681023e-02
1.196481e-01 0.000000e+00 1.328661e-02
1.055999e-01 0.000000e+00 9.524396e-03
9.427418e-02 0.000000e+00 6.059166e-03
8.582398e-02 0.000000e+00 3.320055e-03
8.009394e-02 0.000000e+00 1.539590e-03
7.661950e-02 0.000000e+00 7.640306e-04
7.462077e-02 0.000000e+00 1.104321e-03
7.307987e-02 0.000000e+00 2.456951e-03
7.056080e-02 0.000000e+00 4.572606e-03
6.563280e-02 0.000000e+00 7.632389e-03
5.714438e-02 0.000000e+00 9.093346e-03
4.524939e-02 0.000000e+00 1.192582e-02
3.079903e-02 0.000000e+00 1.074540e-02
1.635603e-02 0.000000e+00 1.649865e-02
0.000000e+00 0.000000e+00 2.669742e-02
0.000000e+00 -3.080415e-14 -2.532998e-02
9.725719e-03 5.288714e-14 -2.581191e-02
2.669414e-02 -6.780374e-14 -2.793008e-02
4.822900e-02 -1.072451e-14 -2.950205e-02
7.229954e-02 -4.745474e-15 -2.982296e-02
9.796947e-02 1.399984e-14 -3.058146e-02
1.252463e-01 -1.358475e-14 -3.151911e-02
1.540305e-01 -2.129909e-14 -3.235342e-02
1.838470e-01 2.374931e-14 -3.248329e-02
2.135813e-01 1.466508e-14 -3.139729e-02
2.416603e-01 -1.834314e-14 -2.877206e-02
2.664389e-01 -2.135793e-14 -2.471843e-02
2.865693e-01 4.380259e-15 -1.957278e-02
3.011024e-01 -3.749437e-15 -1.373788e-02
3.094932e-01 1.985554e-14 -7.585433e-03
3.115838e-01 -3.170517e-14 -1.440246e-03
3.075659e-01 1.240863e-14 4.425937e-03
2.979016e-01 -1.202347e-14 9.804268e-03
2.832534e-01 -1.019287e-14 1.449486e-02
2.645357e-01 -1.194349e-14 1.826410e-02
2.430040e-01 -1.163119e-14 2.088901e-02
2.201130e-01 -6.796060e-14 2.229615e-02
1.971930e-01 8.761808e-14 2.252706e-02
1.752205e-01 -1.402624e-14 2.163769e-02
1.547511e-01 -1.883253e-14 1.967776e-02
1.361372e-01 -8.245155e-14 1.681023e-02
1.196481e-01 -1.139062e-13 1.328661e-02
1.055999e-01 9.076222e-14 9.524396e-03
9.427418e-02 -1.325099e-13 6.059166e-03
8.582398e-02 1.170652e-14 3.320055e-03
8.009394e-02 6.008200e-14 1.539590e-03
7.661950e-02 -2.857604e-15 7.640306e-04
7.462077e-02 -8.209328e-14 1.104321e-03
7.307987e-02 5.732999e-14 2.456951e-03
7.056080e-02 1.030736e-13 4.572606e-03
6.563280e-02 -7.710148e-15 7.632389e-03
5.714438e-02 -3.134114e-14 9.093346e-03
4.524939e-02 3.351381e-14 1.192582e-02
3.079903e-02 -1.128418e-14 1.074540e-02
1.635603e-02 5.525789e-14 1.649865e-02
0.000000e+00 -3.533205e-14 2.669742e-02
0.000000e+00 8.502976e-14 -2.532998e-02
9.725719e-03 -8.376257e-14 -2.581191e-02
2.669414e-02 2.380809e-14 -2.793008e-02
4.822900e-02 -9.573638e-15 -2.950205e-02
7.229954e-02 6.158461e-14 -2.982296e-02
9.796947e-02 -1.416526e-14 -3.058146e-02
1.252463e-01 -2.279255e-14 -3.151911e-02
1.540305e-01 -5.143025e-14 -3.235342e-02
1.838470e-01 6.334561e-14 -3.248329e-02
2.135813e-01 -7.532366e-15 -3.139729e-02
2.416603e-01 -2.937181e-14 -2.877206e-02
2.664389e-01 -4.430601e-15 -2.471843e-02
2.865693e-01 3.486005e-15 -1.957278e-02
3.011024e-01 1.184732e-14 -1.373788e-02
3.094932e-01 3.648207e-15 -7.585433e-03
3.115838e-01 -1.841810e-14 -1.440246e-03
3.075659e-01 1.585551e-15 4.425937e-03
2.979016e-01 -2.933835e-14 9.804268e-03
2.832534e-01 -3.712258e-15 1.449486e-02
2.645357e-01 1.432635e-14 1.826410e-02
2.430040e-01 -2.982188e-14 2.088901e-02
2.201130e-01 -1.028189e-13 2.229615e-02
1.971930e-01 1.534954e-13 2.252706e-02
1.752205e-01 -9.554440e-14 2.163769e-02
1.547511e-01 4.744987e-14 1.967776e-02
1.361372e-01 -9.049507e-14 1.681023e-02
1.196481e-01 -7.680468e-14 1.328661e-02
1.055999e-01 3.706844e-14 9.524396e-03
9.427418e-02 -5.086630e-15 6.059166e-03
8.582398e-02 -1.519872e-13 3.320055e-03
8.009394e-02 6.594519e-14 1.539590e-03
7.661950e-02 -3.375985e-14 7.640306e-04
7.462077e-02 -8.368891e-14 1.104321e-03
7.307987e-02 6.528865e-14 2.456951e-03
7.056080e-02 6.924446e-14 4.572606e-03
6.563280e-02 -1.544263e-14 7.632389e-03
5.714438e-02 -4.946967e-14 9.093346e-03
4.524939e-02 -1.823551e-14 1.192582e-02
3.079903e-02 -1.504492e-14 1.074540e-02
1.635603e-02 4.552920e-16 1.649865e-02
0.000000e+00 -8.306934e-15 2.669742e-02
0.000000e+00 -8.788894e-14 -2.532998e-02
9.725719e-03 1.226105e-14 -2.581191e-02
2.669414e-02 -8.292834e-14 -2.793008e-02
4.822900e-02 -4.251478e-14 -2.950205e-02
7.229954e-02 2.913246e-14 -2.982296e-02
9.796947e-02 -6.375294e-15 -3.058146e-02
1.252463e-01 -2.504389e-15 -3.151911e-02
1.540305e-01 -2.927157e-14 -3.235342e-02
1.838470e-01 -2.476791e-15 -3.248329e-02
2.135813e-01 5.658046e-15 -3.139729e-02
2.416603e-01 -2.564433e-14 -2.877206e-02
2.664389e-01 -1.548171e-14 -2.471843e-02
2.865693e-01 1.907807e-14 -1.957278e-02
3.011024e-01 1.366868e-15 -1.373788e-02
3.094932e-01 1.628006e-15 -7.585433e-03
3.115838e-01 -2.379808e-14 -1.440246e-03
3.075659e-01 1.551031e-14 4.425937e-03
2.979016e-01 -1.807440e-14 9.804268e-03
2.832534e-01 1.345551e-14 1.449486e-02
2.645357e-01 1.435402e-14 1.826410e-02
2.430040e-01 -2.988178e-14 2.088901e-02
2.201130e-01 -5.750177e-14 2.229615e-02
1.971930e-01 1.566519e-13 2.252706e-02
1.752205e-01 -7.827439e-14 2.163769e-02
1.547511e-01 1.914244e-14 1.967776e-02
1.361372e-01 -6.724955e-14 1.681023e-02
1.196481e-01 -1.457492e-13 1.328661e-02
1.055999e-01 1.874597e-13 9.524396e-03
9.427418e-02 1.812294e-15 6.059166e-03
8.582398e-02 -8.493049e-14 3.320055e-03
8.009394e-02 1.200499e-13 1.539590e-03
7.661950e-02 4.458884e-15 7.640306e-04
7.462077e-02 -1.106354e-13 1.104321e-03
7.307987e-02 1.310117e-13 2.456951e-03
7.056080e-02 6.467954e-14 4.572606e-03
6.563280e-02 1.644879e-14 7.632389e-03
5.714438e-02 -9.086887e-14 9.093346e-03
4.524939e-02 -2.178324e-14 1.192582e-02
3.079903e-02 -1.503503e-14 1.074540e-02
1.635603e-02 4.335609e-14 1.649865e-02
0.000000e+00 -4.993975e-14 2.669742e-02
0.000000e+00 -7.062481e-14 -2.532998e-02
9.725719e-03 1.977217e-14 -2.581191e-02
2.669414e-02 -5.703236e-14 -2.793008e-02
4.822900e-02 -2.333754e-14 -2.950205e-02
7.229954e-02 8.999682e-15 -2.982296e-02
9.796947e-02 8.231685e-14 -3.058146e-02
1.252463e-01 -4.724442e-14 -3.151911e-02
1.540305e-01 3.864825e-15 -3.235342e-02
1.838470e-01 -4.318676e-14 -3.248329e-02
2.135813e-01 1.627029e-14 -3.139729e-02
2.416603e-01 -5.504983e-17 -2.877206e-02
2.664389e-01 -7.640190e-15 -2.471843e-02
2.865693e-01 -7.224798e-15 -1.957278e-02
3.011024e-01 7.996514e-15 -1.373788e-02
3.094932e-01 -2.052245e-14 -7.585433e-03
3.115838e-01 -7.774892e-15 -1.440246e-03
3.075659e-01 2.208576e-14 4.425937e-03
2.979016e-01 6.416302e-15 9.804268e-03
2.832534e-01 -9.785878e-15 1.449486e-02
2.645357e-01 2.400059e-14 1.826410e-02
2.430040e-01 -3.259728e-14 2.088901e-02
2.201130e-01 -3.489246e-14 2.229615e-02
1.971930e-01 1.133399e-13 2.252706e-02
1.752205e-01 -6.869160e-15 2.163769e-02
1.547511e-01 -4.258650e-14 1.967776e-02
1.361372e-01 -1.747212e-14 1.681023e-02
1.196481e-01 -9.482150e-14 1.328661e-02
1.055999e-01 1.738568e-13 9.524396e-03
9.427418e-02 8.550736e-15 6.059166e-03
8.582398e-02 -1.330468e-13 3.320055e-03
8.009394e-02 1.019519e-13 1.539590e-03
7.661950e-02 -1.059830e-14 7.640306e-04
7.462077e-02 -1.783934e-13 1.104321e-03
7.307987e-02 1.428770e-13 2.456951e-03
7.056080e-02 -1.184919e-14 4.572606e-03
6.563280e-02 -4.708080e-14 7.632389e-03
5.714438e-02 -4.608893e-14 9.093346e-03
4.524939e-02 -2.043213e-14 1.192582e-02
3.079903e-02 1.870560e-14 1.074540e-02
1.635603e-02 8.964931e-14 1.649865e-02
0.000000e+00 -1.198933e-13 2.669742e-02
0.000000e+00 5.273988e-15 -2.532998e-02
9.725719e-03 -9.069309e-14 -2.581191e-02
2.669414e-02 2.179898e-14 -2.793008e-02
4.822900e-02 -1.740456e-14 -2.950205e-02
7.229954e-02 1.675599e-15 -2.982296e-02
9.796947e-02 4.605450e-14 -3.058146e-02
1.252463e-01 -4.719774e-14 -3.151911e-02
1.540305e-01 1.279497e-14 -3.235342e-02
1.838470e-01 -3.061343e-14 -3.248329e-02
2.135813e-01 1.093267e-14 -3.139729e-02
2.416603e-01 -8.506176e-15 -2.877206e-02