# vtk DataFile Version 3.0
vtk output
ASCII
DATASET UNSTRUCTURED_GRID
POINTS 11767 float
0.000000e+00 0.000000e+00 0.000000e+00
1.460000e-02 0.000000e+00 0.000000e+00
2.920000e-02 0.000000e+00 0.000000e+00
4.380000e-02 0.000000e+00 0.000000e+00
5.840000e-02 0.000000e+00 0.000000e+00
7.300000e-02 0.000000e+00 0.000000e+00
8.760000e-02 0.000000e+00 0.000000e+00
1.022000e-01 0.000000e+00 0.000000e+00
1.168000e-01 0.000000e+00 0.000000e+00
1.314000e-01 0.000000e+00 0.000000e+00
1.460000e-01 0.000000e+00 0.000000e+00
1.606000e-01 0.000000e+00 0.000000e+00
1.752000e-01 0.000000e+00 0.000000e+00
1.898000e-01 0.000000e+00 0.000000e+00
2.044000e-01 0.000000e+00 0.000000e+00
2.190000e-01 0.000000e+00 0.000000e+00
2.336000e-01 0.000000e+00 0.000000e+00
2.482000e-01 0.000000e+00 0.000000e+00
2.628000e-01 0.000000e+00 0.000000e+00
2.774000e-01 0.000000e+00 0.000000e+00
2.920000e-01 0.000000e+00 0.000000e+00
3.066000e-01 0.000000e+00 0.000000e+00
3.212000e-01 0.000000e+00 0.000000e+00
3.358000e-01 0.000000e+00 0.000000e+00
3.504000e-01 0.000000e+00 0.000000e+00
3.650000e-01 0.000000e+00 0.000000e+00
3.796000e-01 0.000000e+00 0.000000e+00
3.942000e-01 0.000000e+00 0.000000e+00
4.088000e-01 0.000000e+00 0.000000e+00
4.234000e-01 0.000000e+00 0.000000e+00
4.380000e-01 0.000000e+00 0.000000e+00
4.526000e-01 0.000000e+00 0.000000e+00
4.672000e-01 0.000000e+00 0.000000e+00
4.818000e-01 0.000000e+00 0.000000e+00
4.964000e-01 0.000000e+00 0.000000e+00
5.110000e-01 0.000000e+00 0.000000e+00
5.256000e-01 0.000000e+00 0.000000e+00
5.402000e-01 0.000000e+00 0.000000e+00
5.548000e-01 0.000000e+00 0.000000e+00
5.694000e-01 0.000000e+00 0.000000e+00
5.840000e-01 0.000000e+00 0.000000e+00
0.000000e+00 1.460000e-02 0.000000e+00
1.460000e-02 1.460000e-02 0.000000e+00
2.920000e-02 1.460000e-02 0.000000e+00
4.380000e-02 1.460000e-02 0.000000e+00
5.840000e-02 1.460000e-02 0.000000e+00
7.300000e-02 1.460000e-02 0.000000e+00
8.760000e-02 1.460000e-02 0.000000e+00
1.022000e-01 1.460000e-02 0.000000e+00
1.168000e-01 1.460000e-02 0.000000e+00
1.314000e-01 1.460000e-02 0.000000e+00
1.460000e-01 1.460000e-02 0.000000e+00
1.606000e-01 1.460000e-02 0.000000e+00
1.752000e-01 1.460000e-02 0.000000e+00
1.898000e-01 1.460000e-02 0.000000e+00
2.044000e-01 1.460000e-02 0.000000e+00
2.190000e-01 1.460000e-02 0.000000e+00
2.336000e-01 1.460000e-02 0.000000e+00
2.482000e-01 1.460000e-02 0.000000e+00
2.628000e-01 1.460000e-02 0.000000e+00
2.774000e-01 1.460000e-02 0.000000e+00
2.920000e-01 1.460000e-02 0.000000e+00
3.066000e-01 1.460000e-02 0.000000e+00
3.212000e-01 1.460000e-02 0.000000e+00
3.358000e-01 1.460000e-02 0.000000e+00
3.504000e-01 1.460000e-02 0.000000e+00
3.650000e-01 1.460000e-02 0.000000e+00
3.796000e-01 1.460000e-02 0.000000e+00
3.942000e-01 1.460000e-02 0.000000e+00
4.088000e-01 1.460000e-02 0.000000e+00
4.234000e-01 1.460000e-02 0.000000e+00
4.380000e-01 1.460000e-02 0.000000e+00
4.526000e-01 1.460000e-02 0.000000e+00
4.672000e-01 1.460000e-02 0.000000e+00
4.818000e-01 1.460000e-02 0.000000e+00
4.964000e-01 1.460000e-02 0.000000e+00
5.110000e-01 1.460000e-02 0.000000e+00
5.256000e-01 1.460000e-02 0.000000e+00
5.402000e-01 1.460000e-02 0.000000e+00
5.548000e-01 1.460000e-02 0.000000e+00
5.694000e-01 1.460000e-02 0.000000e+00
5.840000e-01 1.460000e-02 0.000000e+00
0.000000e+00 2.920000e-02 0.000000e+00
1.460000e-02 2.920000e-02 0.000000e+00
2.920000e-02 2.920000e-02 0.000000e+00
4.380000e-02 2.920000e-02 0.000000e+00
5.840000e-02 2.920000e-02 0.000000e+00
7.300000e-02 2.920000e-02 0.000000e+00
8.760000e-02 2.920000e-02 0.000000e+00
1.022000e-01 2.920000e-02 0.000000e+00
1.168000e-01 2.920000e-02 0.000000e+00
1.314000e-01 2.920000e-02 0.000000e+00
1.460000e-01 2.920000e-02 0.000000e+00
1.606000e-01 2.920000e-02 0.000000e+00
1.752000e-01 2.920000e-02 0.000000e+00
1.898000e-01 2.920000e-02 0.000000e+00
2.044000e-01 2.920000e-02 0.000000e+00
2.190000e-01 2.920000e-02 0.000000e+00
2.336000e-01 2.920000e-02 0.000000e+00
2.482000e-01 2.920000e-02 0.000000e+00
2.628000e-01 2.920000e-02 0.000000e+00
2.774000e-01 2.920000e-02 0.000000e+00
2.920000e-01 2.920000e-02 0.000000e+00
3.066000e-01 2.920000e-02 0.000000e+00
3.212000e-01 2.920000e-02 0.000000e+00
3.358000e-01 2.920000e-02 0.000000e+00
3.504000e-01 2.920000e-02 0.000000e+00
3.650000e-01 2.920000e-02 0.000000e+00
3.796000e-01 2.920000e-02 0.000000e+00
3.942000e-01 2.920000e-02 0.000000e+00
4.088000e-01 2.920000e-02 0.000000e+00
4.234000e-01 2.920000e-02 0.000000e+00
4.380000e-01 2.920000e-02 0.000000e+00
4.526000e-01 2.920000e-02 0.000000e+00
4.672000e-01 2.920000e-02 0.000000e+00
4.818000e-01 2.920000e-02 0.000000e+00
4.964000e-01 2.920000e-02 0.000000e+00
5.110000e-01 2.920000e-02 0.000000e+00
5.256000e-01 2.920000e-02 0.000000e+00
5.402000e-01 2.920000e-02 0.000000e+00
5.548000e-01 2.920000e-02 0.000000e+00
5.694000e-01 2.920000e-02 0.000000e+00
5.840000e-01 2.920000e-02 0.000000e+00
0.000000e+00 4.380000e-02 0.000000e+00
1.460000e-02 4.380000e-02 0.000000e+00
2.920000e-02 4.380000e-02 0.000000e+00
4.380000e-02 4.380000e-02 0.000000e+00
5.840000e-02 4.380000e-02 0.000000e+00
7.300000e-02 4.380000e-02 0.000000e+00
8.760000e-02 4.380000e-02 0.000000e+00
1.022000e-01 4.380000e-02 0.000000e+00
1.168000e-01 4.380000e-02 0.000000e+00
1.314000e-01 4.380000e-02 0.000000e+00
1.460000e-01 4.380000e-02 0.000000e+00
1.606000e-01 4.380000e-02 0.000000e+00
1.752000e-01 4.380000e-02 0.000000e+00
1.898000e-01 4.380000e-02 0.000000e+00
2.044000e-01 4.380000e-02 0.000000e+00
2.190000e-01 4.380000e-02 0.000000e+00
2.336000e-01 4.380000e-02 0.000000e+00
2.482000e-01 4.380000e-02 0.000000e+00
2.628000e-01 4.380000e-02 0.000000e+00
2.774000e-01 4.380000e-02 0.000000e+00
2.920000e-01 4.380000e-02 0.000000e+00
3.066000e-01 4.380000e-02 0.000000e+00
3.212000e-01 4.380000e-02 0.000000e+00
3.358000e-01 4.380000e-02 0.000000e+00
3.504000e-01 4.380000e-02 0.000000e+00
3.650000e-01 4.380000e-02 0.000000e+00
3.796000e-01 4.380000e-02 0.000000e+00
3.942000e-01 4.380000e-02 0.000000e+00
4.088000e-01 4.380000e-02 0.000000e+00
4.234000e-01 4.380000e-02 0.000000e+00
4.380000e-01 4.380000e-02 0.000000e+00
4.526000e-01 4.380000e-02 0.000000e+00
4.672000e-01 4.380000e-02 0.000000e+00
4.818000e-01 4.380000e-02 0.000000e+00
4.964000e-01 4.380000e-02 0.000000e+00
5.110000e-01 4.380000e-02 0.000000e+00
5.256000e-01 4.380000e-02 0.000000e+00
5.402000e-01 4.380000e-02 0.000000e+00
5.548000e-01 4.380000e-02 0.000000e+00
5.694000e-01 4.380000e-02 0.000000e+00
5.840000e-01 4.380000e-02 0.000000e+00
0.000000e+00 5.840000e-02 0.000000e+00
1.460000e-02 5.840000e-02 0.000000e+00
2.920000e-02 5.840000e-02 0.000000e+00
4.380000e-02 5.840000e-02 0.000000e+00
5.840000e-02 5.840000e-02 0.000000e+00
7.300000e-02 5.840000e-02 0.000000e+00
8.760000e-02 5.840000e-02 0.000000e+00
1.022000e-01 5.840000e-02 0.000000e+00
1.168000e-01 5.840000e-02 0.000000e+00
1.314000e-01 5.840000e-02 0.000000e+00
1.460000e-01 5.840000e-02 0.000000e+00
1.606000e-01 5.840000e-02 0.000000e+00
1.752000e-01 5.840000e-02 0.000000e+00
1.898000e-01 5.840000e-02 0.000000e+00
2.044000e-01 5.840000e-02 0.000000e+00
2.190000e-01 5.840000e-02 0.000000e+00
2.336000e-01 5.840000e-02 0.000000e+00
2.482000e-01 5.840000e-02 0.000000e+00
2.628000e-01 5.840000e-02 0.000000e+00
2.774000e-01 5.840000e-02 0.000000e+00
2.920000e-01 5.840000e-02 0.000000e+00
3.066000e-01 5.840000e-02 0.000000e+00
3.212000e-01 5.840000e-02 0.000000e+00
3.358000e-01 5.840000e-02 0.000000e+00
3.504000e-01 5.840000e-02 0.000000e+00
3.650000e-01 5.840000e-02 0.000000e+00
3.796000e-01 5.840000e-02 0.000000e+00
3.942000e-01 5.840000e-02 0.000000e+00
4.088000e-01 5.840000e-02 0.000000e+00
4.234000e-01 5.840000e-02 0.000000e+00
4.380000e-01 5.840000e-02 0.000000e+00
4.526000e-01 5.840000e-02 0.000000e+00
4.672000e-01 5.840000e-02 0.000000e+00
4.818000e-01 5.840000e-02 0.000000e+00
4.964000e-01 5.840000e-02 0.000000e+00
5.110000e-01 5.840000e-02 0.000000e+00
5.256000e-01 5.840000e-02 0.000000e+00
5.402000e-01 5.840000e-02 0.000000e+00
5.548000e-01 5.840000e-02 0.000000e+00
5.694000e-01 5.840000e-02 0.000000e+00
5.840000e-01 5.840000e-02 0.000000e+00
0.000000e+00 7.300000e-02 0.000000e+00
1.460000e-02 7.300000e-02 0.000000e+00
2.920000e-02 7.300000e-02 0.000000e+00
4.380000e-02 7.300000e-02 0.000000e+00
5.840000e-02 7.300000e-02 0.000000e+00
7.300000e-02 7.300000e-02 0.000000e+00
8.760000e-02 7.300000e-02 0.000000e+00
1.022000e-01 7.300000e-02 0.000000e+00
1.168000e-01 7.300000e-02 0.000000e+00
1.314000e-01 7.300000e-02 0.000000e+00
1.460000e-01 7.300000e-02 0.000000e+00
1.606000e-01 7.300000e-02 0.000000e+00
1.752000e-01 7.300000e-02 0.000000e+00
1.898000e-01 7.300000e-02 0.000000e+00
2.044000e-01 7.300000e-02 0.000000e+00
2.190000e-01 7.300000e-02 0.000000e+00
2.336000e-01 7.300000e-02 0.000000e+00
2.482000e-01 7.300000e-02 0.000000e+00
2.628000e-01 7.300000e-02 0.000000e+00
2.774000e-01 7.300000e-02 0.000000e+00
2.920000e-01 7.300000e-02 0.000000e+00
3.066000e-01 7.300000e-02 0.000000e+00
3.212000e-01 7.300000e-02 0.000000e+00
3.358000e-01 7.300000e-02 0.000000e+00
3.504000e-01 7.300000e-02 0.000000e+00
3.650000e-01 7.300000e-02 0.000000e+00
3.796000e-01 7.300000e-02 0.000000e+00
3.942000e-01 7.300000e-02 0.000000e+00
4.088000e-01 7.300000e-02 0.000000e+00
4.234000e-01 7.300000e-02 0.000000e+00
4.380000e-01 7.300000e-02 0.000000e+00
4.526000e-01 7.300000e-02 0.000000e+00
4.672000e-01 7.300000e-02 0.000000e+00
4.818000e-01 7.300000e-02 0.000000e+00
4.964000e-01 7.300000e-02 0.000000e+00
5.110000e-01 7.300000e-02 0.000000e+00
5.256000e-01 7.300000e-02 0.000000e+00
5.402000e-01 7.300000e-02 0.000000e+00
5.548000e-01 7.300000e-02 0.000000e+00
5.694000e-01 7.300000e-02 0.000000e+00
5.840000e-01 7.300000e-02 0.000000e+00
0.000000e+00 8.760000e-02 0.000000e+00
1.460000e-02 8.760000e-02 0.000000e+00
2.920000e-02 8.760000e-02 0.000000e+00
4.380000e-02 8.760000e-02 0.000000e+00
5.840000e-02 8.760000e-02 0.000000e+00
7.300000e-02 8.760000e-02 0.000000e+00
8.760000e-02 8.760000e-02 0.000000e+00
1.022000e-01 8.760000e-02 0.000000e+00
[...]
POINT_DATA 11767
VECTORS Velocity float
0.000000e+00 0.000000e+00 0.000000e+00
1.790174e-02 0.000000e+00 0.000000e+00
2.701406e-02 0.000000e+00 0.000000e+00
3.253912e-02 0.000000e+00 0.000000e+00
3.559782e-02 0.000000e+00 0.000000e+00
3.663286e-02 0.000000e+00 0.000000e+00
3.648993e-02 0.000000e+00 0.000000e+00
3.622394e-02 0.000000e+00 0.000000e+00
3.590154e-02 0.000000e+00 0.000000e+00
3.582473e-02 0.000000e+00 0.000000e+00
3.574207e-02 0.000000e+00 0.000000e+00
3.616943e-02 0.000000e+00 0.000000e+00
3.747667e-02 0.000000e+00 0.000000e+00
3.991843e-02 0.000000e+00 0.000000e+00
4.281927e-02 0.000000e+00 0.000000e+00
4.541120e-02 0.000000e+00 0.000000e+00
4.673199e-02 0.000000e+00 0.000000e+00
4.628699e-02 0.000000e+00 0.000000e+00
4.403466e-02 0.000000e+00 0.000000e+00
4.084192e-02 0.000000e+00 0.000000e+00
3.763501e-02 0.000000e+00 0.000000e+00
3.529476e-02 0.000000e+00 0.000000e+00
3.401559e-02 0.000000e+00 0.000000e+00
3.371798e-02 0.000000e+00 0.000000e+00
3.390318e-02 0.000000e+00 0.000000e+00
3.447566e-02 0.000000e+00 0.000000e+00
3.528230e-02 0.000000e+00 0.000000e+00
3.660583e-02 0.000000e+00 0.000000e+00
3.835130e-02 0.000000e+00 0.000000e+00
4.082772e-02 0.000000e+00 0.000000e+00
4.375807e-02 0.000000e+00 0.000000e+00
4.716128e-02 0.000000e+00 0.000000e+00
5.041031e-02 0.000000e+00 0.000000e+00
5.298471e-02 0.000000e+00 0.000000e+00
5.468263e-02 0.000000e+00 0.000000e+00
5.517369e-02 0.000000e+00 0.000000e+00
5.426824e-02 0.000000e+00 0.000000e+00
5.243312e-02 0.000000e+00 0.000000e+00
4.496650e-02 0.000000e+00 0.000000e+00
3.573411e-02 0.000000e+00 0.000000e+00
0.000000e+00 0.000000e+00 0.000000e+00
0.000000e+00 -5.019712e-14 0.000000e+00
1.790174e-02 -2.951254e-15 0.000000e+00
2.701406e-02 -6.845451e-15 0.000000e+00
3.253912e-02 -2.495445e-15 0.000000e+00
3.559782e-02 -2.013773e-14 0.000000e+00
3.663286e-02 2.495464e-15 0.000000e+00
3.648993e-02 -1.218403e-14 0.000000e+00
3.622394e-02 1.800091e-14 0.000000e+00
3.590154e-02 1.758946e-14 0.000000e+00
3.582473e-02 7.047527e-15 0.000000e+00
3.574207e-02 3.391443e-14 0.000000e+00
3.616943e-02 -2.502750e-14 0.000000e+00
3.747667e-02 5.411107e-14 0.000000e+00
3.991843e-02 -1.635282e-14 0.000000e+00
4.281927e-02 -1.017583e-14 0.000000e+00
4.541120e-02 2.983707e-14 0.000000e+00
4.673199e-02 -7.993422e-15 0.000000e+00
4.628699e-02 4.347745e-14 0.000000e+00
4.403466e-02 3.873718e-14 0.000000e+00
4.084192e-02 3.318527e-14 0.000000e+00
3.763501e-02 7.167338e-14 0.000000e+00
3.529476e-02 3.688952e-14 0.000000e+00
3.401559e-02 5.577805e-14 0.000000e+00
3.371798e-02 8.529771e-15 0.000000e+00
3.390318e-02 2.326843e-14 0.000000e+00
3.447566e-02 3.679480e-14 0.000000e+00
3.528230e-02 -5.051490e-14 0.000000e+00
3.660583e-02 6.058699e-14 0.000000e+00
3.835130e-02 -2.017714e-14 0.000000e+00
4.082772e-02 1.144183e-14 0.000000e+00
4.375807e-02 -9.160130e-15 0.000000e+00
4.716128e-02 5.885247e-15 0.000000e+00
5.041031e-02 -3.960412e-14 0.000000e+00
5.298471e-02 4.439649e-14 0.000000e+00
5.468263e-02 -3.667419e-14 0.000000e+00
5.517369e-02 4.837004e-14 0.000000e+00
5.426824e-02 -4.611882e-14 0.000000e+00
5.243312e-02 5.004084e-14 0.000000e+00
4.496650e-02 -7.321768e-14 0.000000e+00
3.573411e-02 6.534925e-14 0.000000e+00
0.000000e+00 1.375923e-14 0.000000e+00
0.000000e+00 -1.048193e-13 0.000000e+00
1.790174e-02 -1.384582e-15 0.000000e+00
2.701406e-02 3.730636e-15 0.000000e+00
3.253912e-02 3.742022e-15 0.000000e+00
3.559782e-02 -1.411118e-14 0.000000e+00
3.663286e-02 8.871960e-15 0.000000e+00
3.648993e-02 -9.727121e-15 0.000000e+00
3.622394e-02 8.796386e-15 0.000000e+00
3.590154e-02 2.700434e-14 0.000000e+00
3.582473e-02 -6.702628e-15 0.000000e+00
3.574207e-02 5.950511e-14 0.000000e+00
3.616943e-02 -4.746650e-14 0.000000e+00
3.747667e-02 9.141157e-14 0.000000e+00
3.991843e-02 3.467078e-15 0.000000e+00
4.281927e-02 5.861297e-16 0.000000e+00
4.541120e-02 6.001011e-14 0.000000e+00
4.673199e-02 2.755559e-14 0.000000e+00
4.628699e-02 6.261493e-14 0.000000e+00
4.403466e-02 8.383054e-14 0.000000e+00
4.084192e-02 6.373987e-14 0.000000e+00
3.763501e-02 1.151351e-13 0.000000e+00
3.529476e-02 4.975327e-14 0.000000e+00
3.401559e-02 1.010481e-13 0.000000e+00
3.371798e-02 1.727157e-14 0.000000e+00
3.390318e-02 4.572855e-14 0.000000e+00
3.447566e-02 5.171423e-14 0.000000e+00
3.528230e-02 -1.496147e-14 0.000000e+00
3.660583e-02 6.613269e-14 0.000000e+00
3.835130e-02 -3.215200e-16 0.000000e+00
4.082772e-02 1.373367e-14 0.000000e+00
4.375807e-02 -3.147819e-15 0.000000e+00
4.716128e-02 1.198508e-14 0.000000e+00
5.041031e-02 -2.349654e-14 0.000000e+00
5.298471e-02 1.990674e-14 0.000000e+00
5.468263e-02 -9.137394e-15 0.000000e+00
5.517369e-02 1.294824e-14 0.000000e+00
5.426824e-02 -1.594649e-14 0.000000e+00
5.243312e-02 1.136800e-14 0.000000e+00
4.496650e-02 -2.130749e-14 0.000000e+00
3.573411e-02 3.546568e-14 0.000000e+00
0.000000e+00 -1.218910e-14 0.000000e+00
0.000000e+00 -6.376670e-14 0.000000e+00
1.790174e-02 1.875560e-14 0.000000e+00
2.701406e-02 1.917706e-14 0.000000e+00
3.253912e-02 1.071114e-14 0.000000e+00
3.559782e-02 -5.845273e-15 0.000000e+00
3.663286e-02 1.480697e-14 0.000000e+00
3.648993e-02 -8.022082e-15 0.000000e+00
3.622394e-02 7.063102e-15 0.000000e+00
3.590154e-02 2.461499e-14 0.000000e+00
3.582473e-02 -1.146109e-14 0.000000e+00
3.574207e-02 6.563867e-14 0.000000e+00
3.616943e-02 -4.190155e-14 0.000000e+00
3.747667e-02 1.074137e-13 0.000000e+00
3.991843e-02 1.934239e-14 0.000000e+00
4.281927e-02 1.765472e-14 0.000000e+00
4.541120e-02 8.651910e-14 0.000000e+00
4.673199e-02 4.956960e-14 0.000000e+00
4.628699e-02 1.003726e-13 0.000000e+00
4.403466e-02 1.017617e-13 0.000000e+00
4.084192e-02 8.661510e-14 0.000000e+00
3.763501e-02 1.319285e-13 0.000000e+00
3.529476e-02 7.783444e-14 0.000000e+00
3.401559e-02 1.145446e-13 0.000000e+00
3.371798e-02 5.214532e-14 0.000000e+00
3.390318e-02 5.391321e-14 0.000000e+00
3.447566e-02 8.367315e-14 0.000000e+00
3.528230e-02 -2.225839e-14 0.000000e+00
3.660583e-02 1.021910e-13 0.000000e+00
3.835130e-02 4.246524e-15 0.000000e+00
4.082772e-02 2.950595e-14 0.000000e+00
4.375807e-02 1.516481e-15 0.000000e+00
4.716128e-02 1.753177e-14 0.000000e+00
5.041031e-02 -2.015000e-14 0.000000e+00
5.298471e-02 3.924259e-14 0.000000e+00
5.468263e-02 -1.138207e-14 0.000000e+00
5.517369e-02 3.952375e-14 0.000000e+00
5.426824e-02 -2.842785e-14 0.000000e+00
5.243312e-02 3.716414e-14 0.000000e+00
4.496650e-02 -5.212236e-14 0.000000e+00
3.573411e-02 6.705427e-14 0.000000e+00
0.000000e+00 -6.202609e-14 0.000000e+00
0.000000e+00 -7.474748e-14 0.000000e+00
1.790174e-02 -4.528821e-15 0.000000e+00
2.701406e-02 3.315073e-15 0.000000e+00
3.253912e-02 -6.456097e-15 0.000000e+00
3.559782e-02 -1.728596e-14 0.000000e+00
3.663286e-02 8.485941e-15 0.000000e+00
3.648993e-02 -7.497039e-15 0.000000e+00
3.622394e-02 9.291156e-15 0.000000e+00
3.590154e-02 2.598549e-14 0.000000e+00
3.582473e-02 -2.703718e-15 0.000000e+00
3.574207e-02 6.216306e-14 0.000000e+00
3.616943e-02 -3.933247e-14 0.000000e+00
3.747667e-02 9.895426e-14 0.000000e+00
3.991843e-02 8.093736e-15 0.000000e+00
4.281927e-02 1.009487e-14 0.000000e+00
4.541120e-02 6.322855e-14 0.000000e+00
4.673199e-02 3.656680e-14 0.000000e+00
4.628699e-02 6.868128e-14 0.000000e+00
4.403466e-02 8.304754e-14 0.000000e+00
4.084192e-02 6.143748e-14 0.000000e+00
3.763501e-02 1.134919e-13 0.000000e+00
3.529476e-02 5.734762e-14 0.000000e+00
3.401559e-02 1.075152e-13 0.000000e+00
3.371798e-02 2.926834e-14 0.000000e+00
3.390318e-02 5.521889e-14 0.000000e+00
3.447566e-02 7.337726e-14 0.000000e+00
3.528230e-02 -8.258636e-15 0.000000e+00
3.660583e-02 8.551725e-14 0.000000e+00
3.835130e-02 4.254656e-15 0.000000e+00
4.082772e-02 2.530782e-14 0.000000e+00
4.375807e-02 1.896692e-15 0.000000e+00
4.716128e-02 1.984005e-14 0.000000e+00
5.041031e-02 -2.002204e-14 0.000000e+00
5.298471e-02 2.818941e-14 0.000000e+00
5.468263e-02 -3.823194e-15 0.000000e+00
5.517369e-02 1.612808e-14 0.000000e+00
5.426824e-02 -1.258761e-14 0.000000e+00
5.243312e-02 1.051579e-14 0.000000e+00
4.496650e-02 -2.570984e-14 0.000000e+00
3.573411e-02 2.799579e-14 0.000000e+00
0.000000e+00 -6.492252e-14 0.000000e+00
0.000000e+00 -9.348617e-14 0.000000e+00
1.790174e-02 -5.072431e-14 0.000000e+00
2.701406e-02 -2.550412e-14 0.000000e+00
3.253912e-02 -1.913928e-14 0.000000e+00
3.559782e-02 -2.855503e-14 0.000000e+00
3.663286e-02 -4.982987e-15 0.000000e+00
3.648993e-02 -1.677101e-14 0.000000e+00
3.622394e-02 1.244554e-14 0.000000e+00
3.590154e-02 1.535507e-14 0.000000e+00
3.582473e-02 2.818791e-15 0.000000e+00
3.574207e-02 2.957875e-14 0.000000e+00
3.616943e-02 -2.401932e-14 0.000000e+00
3.747667e-02 5.359827e-14 0.000000e+00
3.991843e-02 -1.933869e-14 0.000000e+00
4.281927e-02 -1.093528e-14 0.000000e+00
4.541120e-02 2.683120e-14 0.000000e+00
4.673199e-02 -7.862449e-15 0.000000e+00
4.628699e-02 3.907741e-14 0.000000e+00
4.403466e-02 3.294070e-14 0.000000e+00
4.084192e-02 2.282098e-14 0.000000e+00
3.763501e-02 5.581018e-14 0.000000e+00
3.529476e-02 3.222606e-14 0.000000e+00
3.401559e-02 4.305723e-14 0.000000e+00
3.371798e-02 8.910805e-15 0.000000e+00
3.390318e-02 1.672801e-14 0.000000e+00
3.447566e-02 3.651750e-14 0.000000e+00
3.528230e-02 -5.835378e-14 0.000000e+00
3.660583e-02 5.634571e-14 0.000000e+00
3.835130e-02 -2.637063e-14 0.000000e+00
4.082772e-02 1.636795e-15 0.000000e+00
4.375807e-02 -2.410966e-14 0.000000e+00
4.716128e-02 -2.937566e-15 0.000000e+00
5.041031e-02 -5.072763e-14 0.000000e+00
5.298471e-02 3.668051e-14 0.000000e+00
5.468263e-02 -4.084102e-14 0.000000e+00
5.517369e-02 4.251876e-14 0.000000e+00
5.426824e-02 -4.987823e-14 0.000000e+00
5.243312e-02 4.704873e-14 0.000000e+00
4.496650e-02 -8.217022e-14 0.000000e+00
3.573411e-02 7.424070e-14 0.000000e+00
0.000000e+00 3.704091e-14 0.000000e+00
0.000000e+00 0.000000e+00 0.000000e+00
1.790174e-02 0.000000e+00 0.000000e+00
2.701406e-02 0.000000e+00 0.000000e+00
3.253912e-02 0.000000e+00 0.000000e+00
3.559782e-02 0.000000e+00 0.000000e+00
3.663286e-02 0.000000e+00 0.000000e+00
3.648993e-02 0.000000e+00 0.000000e+00
3.622394e-02 0.000000e+00 0.000000e+00
3.590154e-02 0.000000e+00 0.000000e+00
3.582473e-02 0.000000e+00 0.000000e+00
3.574207e-02 0.000000e+00 0.000000e+00
3.616943e-02 0.000000e+00 0.000000e+00
3.747667e-02 0.000000e+00 0.000000e+00
3.991843e-02 0.000000e+00 0.000000e+00
4.281927e-02 0.000000e+00 0.000000e+00
4.541120e-02 0.000000e+00 0.000000e+00
4.673199e-02 0.000000e+00 0.000000e+00
4.628699e-02 0.000000e+00 0.000000e+00
4.403466e-02 0.000000e+00 0.000000e+00
4.084192e-02 0.000000e+00 0.000000e+00
3.763501e-02 0.000000e+00 0.000000e+00
3.529476e-02 0.000000e+00 0.000000e+00
3.401559e-02 0.000000e+00 0.000000e+00
3.371798e-02 0.000000e+00 0.000000e+00
3.390318e-02 0.000000e+00 0.000000e+00
3.447566e-02 0.000000e+00 0.000000e+00
3.528230e-02 0.000000e+00 0.000000e+00
3.660583e-02 0.000000e+00 0.000000e+00
3.835130e-02 0.000000e+00 0.000000e+00
4.082772e-02 0.000000e+00 0.000000e+00
4.375807e-02 0.000000e+00 0.000000e+00
4.716128e-02 0.000000e+00 0.000000e+00
5.041031e-02 0.000000e+00 0.000000e+00
5.298471e-02 0.000000e+00 0.000000e+00
5.468263e-02 0.000000e+00 0.000000e+00
5.517369e-02 0.000000e+00 0.000000e+00
5.426824e-02 0.000000e+00 0.000000e+00
5.243312e-02 0.000000e+00 0.000000e+00
4.496650e-02 0.000000e+00 0.000000e+00
3.573411e-02 0.000000e+00 0.000000e+00
0.000000e+00 0.000000e+00 0.000000e+00
0.000000e+00 0.000000e+00 -1.624016e-02
1.646075e-03 0.000000e+00 -1.234093e-02
4.219093e-03 0.000000e+00 -7.384895e-03
4.607979e-03 0.000000e+00 -5.072874e-03
3.152300e-03 0.000000e+00 -3.091039e-03
1.053215e-03 0.000000e+00 -1.817330e-03
-1.833476e-03 0.000000e+00 -1.034178e-03
-6.159706e-03 0.000000e+00 -5.958795e-04
-1.132956e-02 0.000000e+00 -4.648294e-04
-1.674384e-02 0.000000e+00 -6.905862e-04
-2.100562e-02 0.000000e+00 -1.277798e-03
-2.375229e-02 0.000000e+00 -2.361309e-03
-2.446668e-02 0.000000e+00 -3.753119e-03
-2.348347e-02 0.000000e+00 -4.854720e-03
-2.122079e-02 0.000000e+00 -5.213941e-03
-1.851253e-02 0.000000e+00 -4.695585e-03
-1.610615e-02 0.000000e+00 -3.384415e-03
-1.480088e-02 0.000000e+00 -1.660418e-03
-1.488912e-02 0.000000e+00 -2.158652e-04
-1.627708e-02 0.000000e+00 4.762738e-04
-1.849302e-02 0.000000e+00 2.981128e-04
-2.077844e-02 0.000000e+00 -4.996038e-04
-2.251018e-02 0.000000e+00 -1.490834e-03
-2.335046e-02 0.000000e+00 -2.285054e-03
-2.329399e-02 0.000000e+00 -2.866429e-03
-2.232083e-02 0.000000e+00 -3.332615e-03
-2.056664e-02 0.000000e+00 -3.860933e-03
-1.798794e-02 0.000000e+00 -4.417272e-03
-1.472961e-02 0.000000e+00 -5.073065e-03
-1.064403e-02 0.000000e+00 -5.725941e-03
-5.950927e-03 0.000000e+00 -6.284102e-03
-5.296990e-04 0.000000e+00 -6.599515e-03
5.062695e-03 0.000000e+00 -6.333448e-03
1.069881e-02 0.000000e+00 -5.646914e-03
1.536779e-02 0.000000e+00 -4.652031e-03
1.878130e-02 0.000000e+00 -2.938809e-03
2.012898e-02 0.000000e+00 -2.285100e-03
1.989567e-02 0.000000e+00 1.667323e-03
1.690025e-02 0.000000e+00 2.625286e-03
1.158662e-02 0.000000e+00 1.471704e-02
0.000000e+00 0.000000e+00 3.045461e-02
0.000000e+00 1.870310e-14 -1.624016e-02
1.646075e-03 -1.813175e-16 -1.234093e-02
4.219093e-03 -4.805568e-16 -7.384895e-03
4.607979e-03 1.872712e-14 -5.072874e-03
3.152300e-03 -1.982584e-15 -3.091039e-03
1.053215e-03 1.042980e-14 -1.817330e-03
-1.833476e-03 -1.426837e-14 -1.034178e-03
-6.159706e-03 -1.024973e-15 -5.958795e-04
-1.132956e-02 -2.650557e-14 -4.648294e-04
-1.674384e-02 -5.220011e-15 -6.905862e-04
-2.100562e-02 -1.355973e-14 -1.277798e-03
-2.375229e-02 7.311120e-15 -2.361309e-03
-2.446668e-02 2.105839e-14 -3.753119e-03
-2.348347e-02 -1.138042e-15 -4.854720e-03
-2.122079e-02 7.828868e-14 -5.213941e-03
-1.851253e-02 2.288474e-14 -4.695585e-03
-1.610615e-02 6.099382e-14 -3.384415e-03
-1.480088e-02 1.156954e-13 -1.660418e-03
-1.488912e-02 9.923326e-14 -2.158652e-04
-1.627708e-02 1.435158e-13 4.762738e-04
-1.849302e-02 1.584489e-13 2.981128e-04
-2.077844e-02 1.257198e-13 -4.996038e-04
-2.251018e-02 1.451540e-13 -1.490834e-03
-2.335046e-02 8.697442e-14 -2.285054e-03
-2.329399e-02 1.345793e-13 -2.866429e-03
-2.232083e-02 5.670267e-14 -3.332615e-03
-2.056664e-02 8.185932e-14 -3.860933e-03
-1.798794e-02 6.451944e-14 -4.417272e-03
-1.472961e-02 3.320818e-14 -5.073065e-03
-1.064403e-02 4.247043e-14 -5.725941e-03
-5.950927e-03 1.127378e-14 -6.284102e-03
-5.296990e-04 1.333807e-15 -6.599515e-03
5.062695e-03 5.466464e-15 -6.333448e-03
1.069881e-02 4.890523e-14 -5.646914e-03
1.536779e-02 -1.943915e-14 -4.652031e-03
1.878130e-02 4.658201e-14 -2.938809e-03
2.012898e-02 -4.493239e-14 -2.285100e-03
1.989567e-02 4.486833e-14 1.667323e-03
1.690025e-02 -9.236163e-14 2.625286e-03
1.158662e-02 7.449240e-14 1.471704e-02
0.000000e+00 -1.134840e-14 3.045461e-02
0.000000e+00 7.080364e-16 -1.624016e-02
1.646075e-03 -2.921064e-14 -1.234093e-02
4.219093e-03 -2.294342e-14 -7.384895e-03
4.607979e-03 4.645943e-15 -5.072874e-03
3.152300e-03 -2.225238e-14 -3.091039e-03
1.053215e-03 1.122238e-14 -1.817330e-03
-1.833476e-03 -1.221008e-14 -1.034178e-03
-6.159706e-03 1.770457e-14 -5.958795e-04
-1.132956e-02 -9.202651e-15 -4.648294e-04
-1.674384e-02 1.850626e-14 -6.905862e-04
-2.100562e-02 8.399291e-15 -1.277798e-03
-2.375229e-02 2.747341e-14 -2.361309e-03
-2.446668e-02 5.540249e-14 -3.753119e-03
-2.348347e-02 4.370395e-15 -4.854720e-03
-2.122079e-02 1.235663e-13 -5.213941e-03
-1.851253e-02 4.595268e-14 -4.695585e-03
-1.610615e-02 8.472461e-14 -3.384415e-03
-1.480088e-02 1.404874e-13 -1.660418e-03
-1.488912e-02 1.290624e-13 -2.158652e-04
-1.627708e-02 1.720314e-13 4.762738e-04
-1.849302e-02 2.047608e-13 2.981128e-04
-2.077844e-02 1.595460e-13 -4.996038e-04
-2.251018e-02 2.014143e-13 -1.490834e-03
-2.335046e-02 1.046092e-13 -2.285054e-03
-2.329399e-02 1.849213e-13 -2.866429e-03
-2.232083e-02 7.900417e-14 -3.332615e-03
-2.056664e-02 1.221540e-13 -3.860933e-03
-1.798794e-02 7.337812e-14 -4.417272e-03
-1.472961e-02 5.814592e-14 -5.073065e-03
-1.064403e-02 5.319757e-14 -5.725941e-03
-5.950927e-03 2.846719e-14 -6.284102e-03
-5.296990e-04 1.916658e-14 -6.599515e-03
5.062695e-03 -1.992615e-15 -6.333448e-03
1.069881e-02 5.214385e-14 -5.646914e-03
1.536779e-02 -1.866130e-14 -4.652031e-03
1.878130e-02 1.971001e-14 -2.938809e-03
2.012898e-02 -1.458411e-14 -2.285100e-03
1.989567e-02 1.383360e-14 1.667323e-03
1.690025e-02 -4.016978e-14 2.625286e-03
1.158662e-02 3.529746e-14 1.471704e-02
0.000000e+00 1.900721e-14 3.045461e-02
0.000000e+00 1.139109e-14 -1.624016e-02
1.646075e-03 -3.140281e-14 -1.234093e-02
4.219093e-03 -3.723178e-14 -7.384895e-03
4.607979e-03 -8.042282e-15 -5.072874e-03
3.152300e-03 -3.282705e-14 -3.091039e-03
1.053215e-03 8.987832e-15 -1.817330e-03
-1.833476e-03 -1.206299e-14 -1.034178e-03
-6.159706e-03 2.530447e-14 -5.958795e-04
-1.132956e-02 5.562547e-16 -4.648294e-04
-1.674384e-02 3.529521e-14 -6.905862e-04
-2.100562e-02 3.069330e-14 -1.277798e-03
-2.375229e-02 3.855038e-14 -2.361309e-03
-2.446668e-02 6.478529e-14 -3.753119e-03
-2.348347e-02 1.416355e-14 -4.854720e-03
-2.122079e-02 1.372515e-13 -5.213941e-03
-1.851253e-02 5.445473e-14 -4.695585e-03
-1.610615e-02 9.236639e-14 -3.384415e-03
-1.480088e-02 1.357602e-13 -1.660418e-03
-1.488912e-02 1.074892e-13 -2.158652e-04
-1.627708e-02 1.581090e-13 4.762738e-04
-1.849302e-02 1.880546e-13 2.981128e-04
-2.077844e-02 1.455222e-13 -4.996038e-04
-2.251018e-02 1.947036e-13 -1.490834e-03
-2.335046e-02 9.539689e-14 -2.285054e-03
-2.329399e-02 1.828819e-13 -2.866429e-03
-2.232083e-02 7.445973e-14 -3.332615e-03
-2.056664e-02 1.178854e-13 -3.860933e-03
-1.798794e-02 8.036809e-14 -4.417272e-03
-1.472961e-02 4.671903e-14 -5.073065e-03
-1.064403e-02 6.247819e-14 -5.725941e-03
-5.950927e-03 1.460278e-14 -6.284102e-03
-5.296990e-04 2.702483e-14 -6.599515e-03
5.062695e-03 -3.098508e-15 -6.333448e-03
1.069881e-02 7.234760e-14 -5.646914e-03
1.536779e-02 -2.566765e-14 -4.652031e-03
1.878130e-02 3.918896e-14 -2.938809e-03
2.012898e-02 -4.884555e-14 -2.285100e-03
1.989567e-02 3.134315e-14 1.667323e-03
1.690025e-02 -9.431754e-14 2.625286e-03
1.158662e-02 7.763151e-14 1.471704e-02
0.000000e+00 -5.719083e-15 3.045461e-02
0.000000e+00 -1.052426e-15 -1.624016e-02
1.646075e-03 -3.300143e-14 -1.234093e-02
4.219093e-03 -2.939751e-14 -7.384895e-03
4.607979e-03 -4.477780e-15 -5.072874e-03
3.152300e-03 -1.733076e-14 -3.091039e-03
1.053215e-03 1.343924e-14 -1.817330e-03
-1.833476e-03 -1.185223e-14 -1.034178e-03
-6.159706e-03 1.690306e-14 -5.958795e-04
-1.132956e-02 1.916132e-15 -4.648294e-04
-1.674384e-02 2.832949e-14 -6.905862e-04
-2.100562e-02 2.001651e-14 -1.277798e-03
-2.375229e-02 3.368420e-14 -2.361309e-03
-2.446668e-02 5.114781e-14 -3.753119e-03
-2.348347e-02 6.564640e-15 -4.854720e-03
-2.122079e-02 1.213528e-13 -5.213941e-03
-1.851253e-02 4.064884e-14 -4.695585e-03
-1.610615e-02 7.780619e-14 -3.384415e-03
-1.480088e-02 1.176481e-13 -1.660418e-03
-1.488912e-02 9.903726e-14 -2.158652e-04
-1.627708e-02 1.367237e-13 4.762738e-04
-1.849302e-02 1.698029e-13 2.981128e-04
-2.077844e-02 1.273827e-13 -4.996038e-04
-2.251018e-02 1.742363e-13 -1.490834e-03
-2.335046e-02 8.339580e-14 -2.285054e-03
-2.329399e-02 1.717931e-13 -2.866429e-03
-2.232083e-02 7.050408e-14 -3.332615e-03
-2.056664e-02 1.157142e-13 -3.860933e-03
-1.798794e-02 7.388515e-14 -4.417272e-03
-1.472961e-02 5.014801e-14 -5.073065e-03
-1.064403e-02 5.755524e-14 -5.725941e-03
-5.950927e-03 2.778678e-14 -6.284102e-03
-5.296990e-04 3.058185e-14 -6.599515e-03
5.062695e-03 -3.049206e-15 -6.333448e-03
1.069881e-02 5.772986e-14 -5.646914e-03
1.536779e-02 -2.559546e-14 -4.652031e-03
1.878130e-02 2.088278e-14 -2.938809e-03
2.012898e-02 -2.436266e-14 -2.285100e-03
1.989567e-02 1.397722e-14 1.667323e-03
1.690025e-02 -4.101870e-14 2.625286e-03
1.158662e-02 3.450223e-14 1.471704e-02
0.000000e+00 3.505681e-15 3.045461e-02
0.000000e+00 -2.412463e-14 -1.624016e-02
1.646075e-03 -3.928402e-14 -1.234093e-02
4.219093e-03 -1.655553e-14 -7.384895e-03
4.607979e-03 7.431711e-15 -5.072874e-03
3.152300e-03 -6.659652e-15 -3.091039e-03
1.053215e-03 1.560931e-14 -1.817330e-03
-1.833476e-03 -8.147547e-15 -1.034178e-03
-6.159706e-03 6.914078e-15 -5.958795e-04