# vtk DataFile Version 3.0
vtk output
ASCII
DATASET UNSTRUCTURED_GRID
POINTS 11767 float
0.000000e+00 0.000000e+00 0.000000e+00
1.460000e-02 0.000000e+00 0.000000e+00
2.920000e-02 0.000000e+00 0.000000e+00
4.380000e-02 0.000000e+00 0.000000e+00
5.840000e-02 0.000000e+00 0.000000e+00
7.300000e-02 0.000000e+00 0.000000e+00
8.760000e-02 0.000000e+00 0.000000e+00
1.022000e-01 0.000000e+00 0.000000e+00
1.168000e-01 0.000000e+00 0.000000e+00
1.314000e-01 0.000000e+00 0.000000e+00
1.460000e-01 0.000000e+00 0.000000e+00
1.606000e-01 0.000000e+00 0.000000e+00
1.752000e-01 0.000000e+00 0.000000e+00
1.898000e-01 0.000000e+00 0.000000e+00
2.044000e-01 0.000000e+00 0.000000e+00
2.190000e-01 0.000000e+00 0.000000e+00
2.336000e-01 0.000000e+00 0.000000e+00
2.482000e-01 0.000000e+00 0.000000e+00
2.628000e-01 0.000000e+00 0.000000e+00
2.774000e-01 0.000000e+00 0.000000e+00
2.920000e-01 0.000000e+00 0.000000e+00
3.066000e-01 0.000000e+00 0.000000e+00
3.212000e-01 0.000000e+00 0.000000e+00
3.358000e-01 0.000000e+00 0.000000e+00
3.504000e-01 0.000000e+00 0.000000e+00
3.650000e-01 0.000000e+00 0.000000e+00
3.796000e-01 0.000000e+00 0.000000e+00
3.942000e-01 0.000000e+00 0.000000e+00
4.088000e-01 0.000000e+00 0.000000e+00
4.234000e-01 0.000000e+00 0.000000e+00
4.380000e-01 0.000000e+00 0.000000e+00
4.526000e-01 0.000000e+00 0.000000e+00
4.672000e-01 0.000000e+00 0.000000e+00
4.818000e-01 0.000000e+00 0.000000e+00
4.964000e-01 0.000000e+00 0.000000e+00
5.110000e-01 0.000000e+00 0.000000e+00
5.256000e-01 0.000000e+00 0.000000e+00
5.402000e-01 0.000000e+00 0.000000e+00
5.548000e-01 0.000000e+00 0.000000e+00
5.694000e-01 0.000000e+00 0.000000e+00
5.840000e-01 0.000000e+00 0.000000e+00
0.000000e+00 1.460000e-02 0.000000e+00
1.460000e-02 1.460000e-02 0.000000e+00
2.920000e-02 1.460000e-02 0.000000e+00
4.380000e-02 1.460000e-02 0.000000e+00
5.840000e-02 1.460000e-02 0.000000e+00
7.300000e-02 1.460000e-02 0.000000e+00
8.760000e-02 1.460000e-02 0.000000e+00
1.022000e-01 1.460000e-02 0.000000e+00
1.168000e-01 1.460000e-02 0.000000e+00
1.314000e-01 1.460000e-02 0.000000e+00
1.460000e-01 1.460000e-02 0.000000e+00
1.606000e-01 1.460000e-02 0.000000e+00
1.752000e-01 1.460000e-02 0.000000e+00
1.898000e-01 1.460000e-02 0.000000e+00
2.044000e-01 1.460000e-02 0.000000e+00
2.190000e-01 1.460000e-02 0.000000e+00
2.336000e-01 1.460000e-02 0.000000e+00
2.482000e-01 1.460000e-02 0.000000e+00
2.628000e-01 1.460000e-02 0.000000e+00
2.774000e-01 1.460000e-02 0.000000e+00
2.920000e-01 1.460000e-02 0.000000e+00
3.066000e-01 1.460000e-02 0.000000e+00
3.212000e-01 1.460000e-02 0.000000e+00
3.358000e-01 1.460000e-02 0.000000e+00
3.504000e-01 1.460000e-02 0.000000e+00
3.650000e-01 1.460000e-02 0.000000e+00
3.796000e-01 1.460000e-02 0.000000e+00
3.942000e-01 1.460000e-02 0.000000e+00
4.088000e-01 1.460000e-02 0.000000e+00
4.234000e-01 1.460000e-02 0.000000e+00
4.380000e-01 1.460000e-02 0.000000e+00
4.526000e-01 1.460000e-02 0.000000e+00
4.672000e-01 1.460000e-02 0.000000e+00
4.818000e-01 1.460000e-02 0.000000e+00
4.964000e-01 1.460000e-02 0.000000e+00
5.110000e-01 1.460000e-02 0.000000e+00
5.256000e-01 1.460000e-02 0.000000e+00
5.402000e-01 1.460000e-02 0.000000e+00
5.548000e-01 1.460000e-02 0.000000e+00
5.694000e-01 1.460000e-02 0.000000e+00
5.840000e-01 1.460000e-02 0.000000e+00
0.000000e+00 2.920000e-02 0.000000e+00
1.460000e-02 2.920000e-02 0.000000e+00
2.920000e-02 2.920000e-02 0.000000e+00
4.380000e-02 2.920000e-02 0.000000e+00
5.840000e-02 2.920000e-02 0.000000e+00
7.300000e-02 2.920000e-02 0.000000e+00
8.760000e-02 2.920000e-02 0.000000e+00
1.022000e-01 2.920000e-02 0.000000e+00
1.168000e-01 2.920000e-02 0.000000e+00
1.314000e-01 2.920000e-02 0.000000e+00
1.460000e-01 2.920000e-02 0.000000e+00
1.606000e-01 2.920000e-02 0.000000e+00
1.752000e-01 2.920000e-02 0.000000e+00
1.898000e-01 2.920000e-02 0.000000e+00
2.044000e-01 2.920000e-02 0.000000e+00
2.190000e-01 2.920000e-02 0.000000e+00
2.336000e-01 2.920000e-02 0.000000e+00
2.482000e-01 2.920000e-02 0.000000e+00
2.628000e-01 2.920000e-02 0.000000e+00
2.774000e-01 2.920000e-02 0.000000e+00
2.920000e-01 2.920000e-02 0.000000e+00
3.066000e-01 2.920000e-02 0.000000e+00
3.212000e-01 2.920000e-02 0.000000e+00
3.358000e-01 2.920000e-02 0.000000e+00
3.504000e-01 2.920000e-02 0.000000e+00
3.650000e-01 2.920000e-02 0.000000e+00
3.796000e-01 2.920000e-02 0.000000e+00
3.942000e-01 2.920000e-02 0.000000e+00
4.088000e-01 2.920000e-02 0.000000e+00
4.234000e-01 2.920000e-02 0.000000e+00
4.380000e-01 2.920000e-02 0.000000e+00
4.526000e-01 2.920000e-02 0.000000e+00
4.672000e-01 2.920000e-02 0.000000e+00
4.818000e-01 2.920000e-02 0.000000e+00
4.964000e-01 2.920000e-02 0.000000e+00
5.110000e-01 2.920000e-02 0.000000e+00
5.256000e-01 2.920000e-02 0.000000e+00
5.402000e-01 2.920000e-02 0.000000e+00
5.548000e-01 2.920000e-02 0.000000e+00
5.694000e-01 2.920000e-02 0.000000e+00
5.840000e-01 2.920000e-02 0.000000e+00
0.000000e+00 4.380000e-02 0.000000e+00
1.460000e-02 4.380000e-02 0.000000e+00
2.920000e-02 4.380000e-02 0.000000e+00
4.380000e-02 4.380000e-02 0.000000e+00
5.840000e-02 4.380000e-02 0.000000e+00
7.300000e-02 4.380000e-02 0.000000e+00
8.760000e-02 4.380000e-02 0.000000e+00
1.022000e-01 4.380000e-02 0.000000e+00
1.168000e-01 4.380000e-02 0.000000e+00
1.314000e-01 4.380000e-02 0.000000e+00
1.460000e-01 4.380000e-02 0.000000e+00
1.606000e-01 4.380000e-02 0.000000e+00
1.752000e-01 4.380000e-02 0.000000e+00
1.898000e-01 4.380000e-02 0.000000e+00
2.044000e-01 4.380000e-02 0.000000e+00
2.190000e-01 4.380000e-02 0.000000e+00
2.336000e-01 4.380000e-02 0.000000e+00
2.482000e-01 4.380000e-02 0.000000e+00
2.628000e-01 4.380000e-02 0.000000e+00
2.774000e-01 4.380000e-02 0.000000e+00
2.920000e-01 4.380000e-02 0.000000e+00
3.066000e-01 4.380000e-02 0.000000e+00
3.212000e-01 4.380000e-02 0.000000e+00
3.358000e-01 4.380000e-02 0.000000e+00
3.504000e-01 4.380000e-02 0.000000e+00
3.650000e-01 4.380000e-02 0.000000e+00
3.796000e-01 4.380000e-02 0.000000e+00
3.942000e-01 4.380000e-02 0.000000e+00
4.088000e-01 4.380000e-02 0.000000e+00
4.234000e-01 4.380000e-02 0.000000e+00
4.380000e-01 4.380000e-02 0.000000e+00
4.526000e-01 4.380000e-02 0.000000e+00
4.672000e-01 4.380000e-02 0.000000e+00
4.818000e-01 4.380000e-02 0.000000e+00
4.964000e-01 4.380000e-02 0.000000e+00
5.110000e-01 4.380000e-02 0.000000e+00
5.256000e-01 4.380000e-02 0.000000e+00
5.402000e-01 4.380000e-02 0.000000e+00
5.548000e-01 4.380000e-02 0.000000e+00
5.694000e-01 4.380000e-02 0.000000e+00
5.840000e-01 4.380000e-02 0.000000e+00
0.000000e+00 5.840000e-02 0.000000e+00
1.460000e-02 5.840000e-02 0.000000e+00
2.920000e-02 5.840000e-02 0.000000e+00
4.380000e-02 5.840000e-02 0.000000e+00
5.840000e-02 5.840000e-02 0.000000e+00
7.300000e-02 5.840000e-02 0.000000e+00
8.760000e-02 5.840000e-02 0.000000e+00
1.022000e-01 5.840000e-02 0.000000e+00
1.168000e-01 5.840000e-02 0.000000e+00
1.314000e-01 5.840000e-02 0.000000e+00
1.460000e-01 5.840000e-02 0.000000e+00
1.606000e-01 5.840000e-02 0.000000e+00
1.752000e-01 5.840000e-02 0.000000e+00
1.898000e-01 5.840000e-02 0.000000e+00
2.044000e-01 5.840000e-02 0.000000e+00
2.190000e-01 5.840000e-02 0.000000e+00
2.336000e-01 5.840000e-02 0.000000e+00
2.482000e-01 5.840000e-02 0.000000e+00
2.628000e-01 5.840000e-02 0.000000e+00
2.774000e-01 5.840000e-02 0.000000e+00
2.920000e-01 5.840000e-02 0.000000e+00
3.066000e-01 5.840000e-02 0.000000e+00
3.212000e-01 5.840000e-02 0.000000e+00
3.358000e-01 5.840000e-02 0.000000e+00
3.504000e-01 5.840000e-02 0.000000e+00
3.650000e-01 5.840000e-02 0.000000e+00
3.796000e-01 5.840000e-02 0.000000e+00
3.942000e-01 5.840000e-02 0.000000e+00
4.088000e-01 5.840000e-02 0.000000e+00
4.234000e-01 5.840000e-02 0.000000e+00
4.380000e-01 5.840000e-02 0.000000e+00
4.526000e-01 5.840000e-02 0.000000e+00
4.672000e-01 5.840000e-02 0.000000e+00
4.818000e-01 5.840000e-02 0.000000e+00
4.964000e-01 5.840000e-02 0.000000e+00
5.110000e-01 5.840000e-02 0.000000e+00
5.256000e-01 5.840000e-02 0.000000e+00
5.402000e-01 5.840000e-02 0.000000e+00
5.548000e-01 5.840000e-02 0.000000e+00
5.694000e-01 5.840000e-02 0.000000e+00
5.840000e-01 5.840000e-02 0.000000e+00
0.000000e+00 7.300000e-02 0.000000e+00
1.460000e-02 7.300000e-02 0.000000e+00
2.920000e-02 7.300000e-02 0.000000e+00
4.380000e-02 7.300000e-02 0.000000e+00
5.840000e-02 7.300000e-02 0.000000e+00
7.300000e-02 7.300000e-02 0.000000e+00
8.760000e-02 7.300000e-02 0.000000e+00
1.022000e-01 7.300000e-02 0.000000e+00
1.168000e-01 7.300000e-02 0.000000e+00
1.314000e-01 7.300000e-02 0.000000e+00
1.460000e-01 7.300000e-02 0.000000e+00
1.606000e-01 7.300000e-02 0.000000e+00
1.752000e-01 7.300000e-02 0.000000e+00
1.898000e-01 7.300000e-02 0.000000e+00
2.044000e-01 7.300000e-02 0.000000e+00
2.190000e-01 7.300000e-02 0.000000e+00
2.336000e-01 7.300000e-02 0.000000e+00
2.482000e-01 7.300000e-02 0.000000e+00
2.628000e-01 7.300000e-02 0.000000e+00
2.774000e-01 7.300000e-02 0.000000e+00
2.920000e-01 7.300000e-02 0.000000e+00
3.066000e-01 7.300000e-02 0.000000e+00
3.212000e-01 7.300000e-02 0.000000e+00
3.358000e-01 7.300000e-02 0.000000e+00
3.504000e-01 7.300000e-02 0.000000e+00
3.650000e-01 7.300000e-02 0.000000e+00
3.796000e-01 7.300000e-02 0.000000e+00
3.942000e-01 7.300000e-02 0.000000e+00
4.088000e-01 7.300000e-02 0.000000e+00
4.234000e-01 7.300000e-02 0.000000e+00
4.380000e-01 7.300000e-02 0.000000e+00
4.526000e-01 7.300000e-02 0.000000e+00
4.672000e-01 7.300000e-02 0.000000e+00
4.818000e-01 7.300000e-02 0.000000e+00
4.964000e-01 7.300000e-02 0.000000e+00
5.110000e-01 7.300000e-02 0.000000e+00
5.256000e-01 7.300000e-02 0.000000e+00
5.402000e-01 7.300000e-02 0.000000e+00
5.548000e-01 7.300000e-02 0.000000e+00
5.694000e-01 7.300000e-02 0.000000e+00
5.840000e-01 7.300000e-02 0.000000e+00
0.000000e+00 8.760000e-02 0.000000e+00
1.460000e-02 8.760000e-02 0.000000e+00
2.920000e-02 8.760000e-02 0.000000e+00
4.380000e-02 8.760000e-02 0.000000e+00
5.840000e-02 8.760000e-02 0.000000e+00
7.300000e-02 8.760000e-02 0.000000e+00
8.760000e-02 8.760000e-02 0.000000e+00
1.022000e-01 8.760000e-02 0.000000e+00
[...]
POINT_DATA 11767
VECTORS Velocity float
0.000000e+00 0.000000e+00 0.000000e+00
2.181831e-02 0.000000e+00 0.000000e+00
3.623589e-02 0.000000e+00 0.000000e+00
4.743784e-02 0.000000e+00 0.000000e+00
5.572062e-02 0.000000e+00 0.000000e+00
6.194401e-02 0.000000e+00 0.000000e+00
6.625244e-02 0.000000e+00 0.000000e+00
6.933213e-02 0.000000e+00 0.000000e+00
7.165641e-02 0.000000e+00 0.000000e+00
7.375958e-02 0.000000e+00 0.000000e+00
7.649913e-02 0.000000e+00 0.000000e+00
8.083795e-02 0.000000e+00 0.000000e+00
8.759507e-02 0.000000e+00 0.000000e+00
9.728466e-02 0.000000e+00 0.000000e+00
1.100984e-01 0.000000e+00 0.000000e+00
1.257914e-01 0.000000e+00 0.000000e+00
1.436310e-01 0.000000e+00 0.000000e+00
1.624238e-01 0.000000e+00 0.000000e+00
1.806574e-01 0.000000e+00 0.000000e+00
1.968594e-01 0.000000e+00 0.000000e+00
2.099457e-01 0.000000e+00 0.000000e+00
2.193928e-01 0.000000e+00 0.000000e+00
2.251528e-01 0.000000e+00 0.000000e+00
2.274565e-01 0.000000e+00 0.000000e+00
2.266148e-01 0.000000e+00 0.000000e+00
2.230204e-01 0.000000e+00 0.000000e+00
2.172457e-01 0.000000e+00 0.000000e+00
2.099629e-01 0.000000e+00 0.000000e+00
2.018373e-01 0.000000e+00 0.000000e+00
1.934181e-01 0.000000e+00 0.000000e+00
1.850204e-01 0.000000e+00 0.000000e+00
1.766080e-01 0.000000e+00 0.000000e+00
1.678955e-01 0.000000e+00 0.000000e+00
1.582515e-01 0.000000e+00 0.000000e+00
1.469113e-01 0.000000e+00 0.000000e+00
1.334027e-01 0.000000e+00 0.000000e+00
1.164394e-01 0.000000e+00 0.000000e+00
9.764985e-02 0.000000e+00 0.000000e+00
7.290709e-02 0.000000e+00 0.000000e+00
4.800166e-02 0.000000e+00 0.000000e+00
0.000000e+00 0.000000e+00 0.000000e+00
0.000000e+00 -5.808547e-14 0.000000e+00
2.181831e-02 2.874069e-14 0.000000e+00
3.623589e-02 3.208990e-15 0.000000e+00
4.743784e-02 -8.202004e-15 0.000000e+00
5.572062e-02 -9.025052e-15 0.000000e+00
6.194401e-02 -5.546295e-15 0.000000e+00
6.625244e-02 -5.999837e-15 0.000000e+00
6.933213e-02 -2.149963e-14 0.000000e+00
7.165641e-02 -1.120923e-14 0.000000e+00
7.375958e-02 -2.157723e-14 0.000000e+00
7.649913e-02 -1.738173e-14 0.000000e+00
8.083795e-02 -1.224974e-14 0.000000e+00
8.759507e-02 7.575947e-15 0.000000e+00
9.728466e-02 -2.908467e-15 0.000000e+00
1.100984e-01 -7.440995e-16 0.000000e+00
1.257914e-01 1.006719e-14 0.000000e+00
1.436310e-01 -8.898207e-15 0.000000e+00
1.624238e-01 7.909612e-16 0.000000e+00
1.806574e-01 -6.452728e-15 0.000000e+00
1.968594e-01 -5.745322e-15 0.000000e+00
2.099457e-01 1.201961e-15 0.000000e+00
2.193928e-01 -1.697476e-15 0.000000e+00
2.251528e-01 5.438337e-15 0.000000e+00
2.274565e-01 1.620902e-15 0.000000e+00
2.266148e-01 -1.324080e-14 0.000000e+00
2.230204e-01 -4.239139e-15 0.000000e+00
2.172457e-01 -2.505100e-14 0.000000e+00
2.099629e-01 -1.490574e-14 0.000000e+00
2.018373e-01 -1.514284e-14 0.000000e+00
1.934181e-01 7.808111e-15 0.000000e+00
1.850204e-01 -2.553641e-14 0.000000e+00
1.766080e-01 1.453764e-14 0.000000e+00
1.678955e-01 -2.387141e-14 0.000000e+00
1.582515e-01 4.385165e-14 0.000000e+00
1.469113e-01 -2.985435e-14 0.000000e+00
1.334027e-01 3.251987e-14 0.000000e+00
1.164394e-01 -3.231462e-14 0.000000e+00
9.764985e-02 1.617830e-14 0.000000e+00
7.290709e-02 -3.551112e-14 0.000000e+00
4.800166e-02 3.488040e-14 0.000000e+00
0.000000e+00 7.060117e-14 0.000000e+00
0.000000e+00 -1.189356e-13 0.000000e+00
2.181831e-02 2.137514e-14 0.000000e+00
3.623589e-02 7.141753e-15 0.000000e+00
4.743784e-02 -1.793613e-14 0.000000e+00
5.572062e-02 -1.108079e-14 0.000000e+00
6.194401e-02 -1.273246e-14 0.000000e+00
6.625244e-02 -1.002977e-14 0.000000e+00
6.933213e-02 -2.669612e-14 0.000000e+00
7.165641e-02 1.014611e-15 0.000000e+00
7.375958e-02 -2.667428e-14 0.000000e+00
7.649913e-02 -2.053449e-14 0.000000e+00
8.083795e-02 -2.257716e-14 0.000000e+00
8.759507e-02 5.878694e-15 0.000000e+00
9.728466e-02 -1.257235e-14 0.000000e+00
1.100984e-01 -4.627264e-15 0.000000e+00
1.257914e-01 8.329164e-15 0.000000e+00
1.436310e-01 -1.175752e-14 0.000000e+00
1.624238e-01 -1.596094e-15 0.000000e+00
1.806574e-01 -7.993777e-15 0.000000e+00
1.968594e-01 -9.955735e-15 0.000000e+00
2.099457e-01 3.506229e-15 0.000000e+00
2.193928e-01 -1.260386e-14 0.000000e+00
2.251528e-01 7.550784e-15 0.000000e+00
2.274565e-01 3.086196e-15 0.000000e+00
2.266148e-01 -1.649892e-14 0.000000e+00
2.230204e-01 -1.007509e-14 0.000000e+00
2.172457e-01 -2.949000e-14 0.000000e+00
2.099629e-01 -1.870406e-14 0.000000e+00
2.018373e-01 -2.280854e-14 0.000000e+00
1.934181e-01 1.207952e-14 0.000000e+00
1.850204e-01 -3.148697e-14 0.000000e+00
1.766080e-01 1.901627e-14 0.000000e+00
1.678955e-01 -2.139695e-14 0.000000e+00
1.582515e-01 4.088574e-14 0.000000e+00
1.469113e-01 -2.494568e-14 0.000000e+00
1.334027e-01 1.766580e-14 0.000000e+00
1.164394e-01 -1.206199e-14 0.000000e+00
9.764985e-02 -5.365941e-15 0.000000e+00
7.290709e-02 9.983378e-15 0.000000e+00
4.800166e-02 3.483962e-15 0.000000e+00
0.000000e+00 4.294826e-14 0.000000e+00
0.000000e+00 -9.057900e-14 0.000000e+00
2.181831e-02 4.509217e-14 0.000000e+00
3.623589e-02 2.621713e-14 0.000000e+00
4.743784e-02 -1.910424e-14 0.000000e+00
5.572062e-02 -9.850211e-15 0.000000e+00
6.194401e-02 -1.089568e-14 0.000000e+00
6.625244e-02 -1.489971e-14 0.000000e+00
6.933213e-02 -1.967072e-14 0.000000e+00
7.165641e-02 1.231993e-14 0.000000e+00
7.375958e-02 -2.263244e-14 0.000000e+00
7.649913e-02 -2.295593e-14 0.000000e+00
8.083795e-02 -2.407287e-14 0.000000e+00
8.759507e-02 1.533355e-15 0.000000e+00
9.728466e-02 -2.074376e-14 0.000000e+00
1.100984e-01 -1.499756e-14 0.000000e+00
1.257914e-01 5.960405e-15 0.000000e+00
1.436310e-01 -2.206283e-14 0.000000e+00
1.624238e-01 4.811079e-16 0.000000e+00
1.806574e-01 -1.066560e-14 0.000000e+00
1.968594e-01 -1.153358e-14 0.000000e+00
2.099457e-01 -1.527159e-15 0.000000e+00
2.193928e-01 -1.184146e-14 0.000000e+00
2.251528e-01 3.240458e-17 0.000000e+00
2.274565e-01 8.253136e-15 0.000000e+00
2.266148e-01 -2.061045e-14 0.000000e+00
2.230204e-01 -4.603988e-16 0.000000e+00
2.172457e-01 -3.050026e-14 0.000000e+00
2.099629e-01 -1.330179e-14 0.000000e+00
2.018373e-01 -2.168160e-14 0.000000e+00
1.934181e-01 1.542928e-14 0.000000e+00
1.850204e-01 -3.311432e-14 0.000000e+00
1.766080e-01 2.703132e-14 0.000000e+00
1.678955e-01 -2.123700e-14 0.000000e+00
1.582515e-01 6.041716e-14 0.000000e+00
1.469113e-01 -3.261442e-14 0.000000e+00
1.334027e-01 3.094208e-14 0.000000e+00
1.164394e-01 -2.917054e-14 0.000000e+00
9.764985e-02 1.342676e-14 0.000000e+00
7.290709e-02 -5.872620e-15 0.000000e+00
4.800166e-02 3.541843e-14 0.000000e+00
0.000000e+00 1.574281e-14 0.000000e+00
0.000000e+00 -8.726490e-14 0.000000e+00
2.181831e-02 2.040034e-14 0.000000e+00
3.623589e-02 1.014873e-14 0.000000e+00
4.743784e-02 -3.079247e-14 0.000000e+00
5.572062e-02 -1.550847e-14 0.000000e+00
6.194401e-02 -1.570012e-14 0.000000e+00
6.625244e-02 -8.453366e-15 0.000000e+00
6.933213e-02 -2.286528e-14 0.000000e+00
7.165641e-02 3.991913e-15 0.000000e+00
7.375958e-02 -2.533358e-14 0.000000e+00
7.649913e-02 -1.822738e-14 0.000000e+00
8.083795e-02 -2.266161e-14 0.000000e+00
8.759507e-02 5.295661e-15 0.000000e+00
9.728466e-02 -1.739886e-14 0.000000e+00
1.100984e-01 -1.064770e-14 0.000000e+00
1.257914e-01 6.499362e-15 0.000000e+00
1.436310e-01 -1.699021e-14 0.000000e+00
1.624238e-01 6.851761e-16 0.000000e+00
1.806574e-01 -7.614968e-15 0.000000e+00
1.968594e-01 -1.020451e-14 0.000000e+00
2.099457e-01 1.565622e-15 0.000000e+00
2.193928e-01 -8.528582e-15 0.000000e+00
2.251528e-01 3.770265e-16 0.000000e+00
2.274565e-01 9.330895e-15 0.000000e+00
2.266148e-01 -2.063869e-14 0.000000e+00
2.230204e-01 2.905137e-15 0.000000e+00
2.172457e-01 -2.572770e-14 0.000000e+00
2.099629e-01 -5.394813e-15 0.000000e+00
2.018373e-01 -2.456044e-14 0.000000e+00
1.934181e-01 1.332922e-14 0.000000e+00
1.850204e-01 -3.598311e-14 0.000000e+00
1.766080e-01 2.589301e-14 0.000000e+00
1.678955e-01 -1.929663e-14 0.000000e+00
1.582515e-01 4.991012e-14 0.000000e+00
1.469113e-01 -2.436625e-14 0.000000e+00
1.334027e-01 1.486959e-14 0.000000e+00
1.164394e-01 -1.478269e-14 0.000000e+00
9.764985e-02 3.715104e-15 0.000000e+00
7.290709e-02 1.023271e-14 0.000000e+00
4.800166e-02 4.471519e-15 0.000000e+00
0.000000e+00 -1.548808e-14 0.000000e+00
0.000000e+00 -1.067142e-13 0.000000e+00
2.181831e-02 -2.639395e-14 0.000000e+00
3.623589e-02 -3.268132e-14 0.000000e+00
4.743784e-02 -3.505686e-14 0.000000e+00
5.572062e-02 -2.105028e-14 0.000000e+00
6.194401e-02 -1.674827e-14 0.000000e+00
6.625244e-02 -8.501406e-15 0.000000e+00
6.933213e-02 -2.140940e-14 0.000000e+00
7.165641e-02 -1.083805e-14 0.000000e+00
7.375958e-02 -2.066624e-14 0.000000e+00
7.649913e-02 -1.885039e-14 0.000000e+00
8.083795e-02 -1.331709e-14 0.000000e+00
8.759507e-02 6.471623e-15 0.000000e+00
9.728466e-02 -8.834254e-15 0.000000e+00
1.100984e-01 -5.359580e-15 0.000000e+00
1.257914e-01 7.545562e-15 0.000000e+00
1.436310e-01 -1.373619e-14 0.000000e+00
1.624238e-01 3.245258e-15 0.000000e+00
1.806574e-01 -7.506288e-15 0.000000e+00
1.968594e-01 -4.992270e-15 0.000000e+00
2.099457e-01 -2.968264e-15 0.000000e+00
2.193928e-01 -2.478844e-15 0.000000e+00
2.251528e-01 -5.633300e-15 0.000000e+00
2.274565e-01 3.605049e-15 0.000000e+00
2.266148e-01 -1.992667e-14 0.000000e+00
2.230204e-01 -1.383946e-16 0.000000e+00
2.172457e-01 -2.801856e-14 0.000000e+00
2.099629e-01 -9.941734e-15 0.000000e+00
2.018373e-01 -2.443118e-14 0.000000e+00
1.934181e-01 3.917784e-15 0.000000e+00
1.850204e-01 -3.098420e-14 0.000000e+00
1.766080e-01 1.471405e-14 0.000000e+00
1.678955e-01 -2.819258e-14 0.000000e+00
1.582515e-01 3.981098e-14 0.000000e+00
1.469113e-01 -3.629758e-14 0.000000e+00
1.334027e-01 3.059126e-14 0.000000e+00
1.164394e-01 -4.105114e-14 0.000000e+00
9.764985e-02 3.486713e-14 0.000000e+00
7.290709e-02 -4.589568e-14 0.000000e+00
4.800166e-02 5.702571e-14 0.000000e+00
0.000000e+00 4.896785e-14 0.000000e+00
0.000000e+00 0.000000e+00 0.000000e+00
2.181831e-02 0.000000e+00 0.000000e+00
3.623589e-02 0.000000e+00 0.000000e+00
4.743784e-02 0.000000e+00 0.000000e+00
5.572062e-02 0.000000e+00 0.000000e+00
6.194401e-02 0.000000e+00 0.000000e+00
6.625244e-02 0.000000e+00 0.000000e+00
6.933213e-02 0.000000e+00 0.000000e+00
7.165641e-02 0.000000e+00 0.000000e+00
7.375958e-02 0.000000e+00 0.000000e+00
7.649913e-02 0.000000e+00 0.000000e+00
8.083795e-02 0.000000e+00 0.000000e+00
8.759507e-02 0.000000e+00 0.000000e+00
9.728466e-02 0.000000e+00 0.000000e+00
1.100984e-01 0.000000e+00 0.000000e+00
1.257914e-01 0.000000e+00 0.000000e+00
1.436310e-01 0.000000e+00 0.000000e+00
1.624238e-01 0.000000e+00 0.000000e+00
1.806574e-01 0.000000e+00 0.000000e+00
1.968594e-01 0.000000e+00 0.000000e+00
2.099457e-01 0.000000e+00 0.000000e+00
2.193928e-01 0.000000e+00 0.000000e+00
2.251528e-01 0.000000e+00 0.000000e+00
2.274565e-01 0.000000e+00 0.000000e+00
2.266148e-01 0.000000e+00 0.000000e+00
2.230204e-01 0.000000e+00 0.000000e+00
2.172457e-01 0.000000e+00 0.000000e+00
2.099629e-01 0.000000e+00 0.000000e+00
2.018373e-01 0.000000e+00 0.000000e+00
1.934181e-01 0.000000e+00 0.000000e+00
1.850204e-01 0.000000e+00 0.000000e+00
1.766080e-01 0.000000e+00 0.000000e+00
1.678955e-01 0.000000e+00 0.000000e+00
1.582515e-01 0.000000e+00 0.000000e+00
1.469113e-01 0.000000e+00 0.000000e+00
1.334027e-01 0.000000e+00 0.000000e+00
1.164394e-01 0.000000e+00 0.000000e+00
9.764985e-02 0.000000e+00 0.000000e+00
7.290709e-02 0.000000e+00 0.000000e+00
4.800166e-02 0.000000e+00 0.000000e+00
0.000000e+00 0.000000e+00 0.000000e+00
0.000000e+00 0.000000e+00 -1.960967e-02
4.658043e-03 0.000000e+00 -1.647282e-02
1.102659e-02 0.000000e+00 -1.280150e-02
1.714512e-02 0.000000e+00 -1.086413e-02
2.212192e-02 0.000000e+00 -8.616267e-03
2.547634e-02 0.000000e+00 -6.816295e-03
2.741024e-02 0.000000e+00 -5.254400e-03
2.801008e-02 0.000000e+00 -4.240109e-03
2.785790e-02 0.000000e+00 -3.781325e-03
2.790427e-02 0.000000e+00 -4.099601e-03
2.898261e-02 0.000000e+00 -5.326268e-03
3.193768e-02 0.000000e+00 -7.456665e-03
3.760635e-02 0.000000e+00 -1.029918e-02
4.661313e-02 0.000000e+00 -1.350480e-02
5.901690e-02 0.000000e+00 -1.664351e-02
7.441454e-02 0.000000e+00 -1.924513e-02
9.189934e-02 0.000000e+00 -2.081630e-02
1.101428e-01 0.000000e+00 -2.097692e-02
1.276745e-01 0.000000e+00 -1.961049e-02
1.431515e-01 0.000000e+00 -1.697652e-02
1.556513e-01 0.000000e+00 -1.355170e-02
1.645926e-01 0.000000e+00 -9.832957e-03
1.698275e-01 0.000000e+00 -6.212865e-03
1.715578e-01 0.000000e+00 -2.922358e-03
1.703647e-01 0.000000e+00 -8.934688e-05
1.669415e-01 0.000000e+00 2.217518e-03
1.618422e-01 0.000000e+00 3.908252e-03
1.556554e-01 0.000000e+00 4.958333e-03
1.488752e-01 0.000000e+00 5.430979e-03
1.419784e-01 0.000000e+00 5.456194e-03
1.352714e-01 0.000000e+00 5.337642e-03
1.287726e-01 0.000000e+00 5.360780e-03
1.222590e-01 0.000000e+00 5.811067e-03
1.151577e-01 0.000000e+00 7.040223e-03
1.069007e-01 0.000000e+00 8.663389e-03
9.677096e-02 0.000000e+00 1.168931e-02
8.401687e-02 0.000000e+00 1.369104e-02
6.869504e-02 0.000000e+00 1.841815e-02
4.950336e-02 0.000000e+00 1.945788e-02
2.764527e-02 0.000000e+00 2.940722e-02
0.000000e+00 0.000000e+00 4.344067e-02
0.000000e+00 1.053178e-14 -1.960967e-02
4.658043e-03 -1.952649e-15 -1.647282e-02
1.102659e-02 -1.457673e-14 -1.280150e-02
1.714512e-02 1.977967e-14 -1.086413e-02
2.212192e-02 1.898431e-15 -8.616267e-03
2.547634e-02 1.099803e-15 -6.816295e-03
2.741024e-02 3.205138e-15 -5.254400e-03
2.801008e-02 1.884684e-14 -4.240109e-03
2.785790e-02 2.341496e-14 -3.781325e-03
2.790427e-02 7.816515e-15 -4.099601e-03
2.898261e-02 1.280323e-14 -5.326268e-03
3.193768e-02 -1.398855e-14 -7.456665e-03
3.760635e-02 -1.066592e-14 -1.029918e-02
4.661313e-02 -2.976688e-14 -1.350480e-02
5.901690e-02 -2.212659e-14 -1.664351e-02
7.441454e-02 -1.797477e-14 -1.924513e-02
9.189934e-02 -1.926373e-14 -2.081630e-02
1.101428e-01 -1.171825e-14 -2.097692e-02
1.276745e-01 -5.080095e-15 -1.961049e-02
1.431515e-01 -1.054142e-14 -1.697652e-02
1.556513e-01 -7.842064e-15 -1.355170e-02
1.645926e-01 -1.011261e-14 -9.832957e-03
1.698275e-01 -8.932038e-15 -6.212865e-03
1.715578e-01 -1.448964e-14 -2.922358e-03
1.703647e-01 6.468608e-15 -8.934688e-05
1.669415e-01 5.059170e-15 2.217518e-03
1.618422e-01 1.856849e-15 3.908252e-03
1.556554e-01 6.997714e-15 4.958333e-03
1.488752e-01 -1.501663e-14 5.430979e-03
1.419784e-01 -2.056292e-15 5.456194e-03
1.352714e-01 -1.473079e-14 5.337642e-03
1.287726e-01 1.132203e-15 5.360780e-03
1.222590e-01 -4.464550e-14 5.811067e-03
1.151577e-01 2.660833e-15 7.040223e-03
1.069007e-01 -1.800312e-14 8.663389e-03
9.677096e-02 1.474657e-14 1.168931e-02
8.401687e-02 -8.037882e-15 1.369104e-02
6.869504e-02 3.427737e-14 1.841815e-02
4.950336e-02 -6.073139e-14 1.945788e-02
2.764527e-02 4.688041e-14 2.940722e-02
0.000000e+00 -2.888515e-14 4.344067e-02
0.000000e+00 6.413723e-15 -1.960967e-02
4.658043e-03 -2.003753e-14 -1.647282e-02
1.102659e-02 -2.709105e-14 -1.280150e-02
1.714512e-02 1.390967e-14 -1.086413e-02
2.212192e-02 -8.578124e-15 -8.616267e-03
2.547634e-02 -2.332505e-15 -6.816295e-03
2.741024e-02 1.349385e-14 -5.254400e-03
2.801008e-02 5.627041e-15 -4.240109e-03
2.785790e-02 1.697586e-14 -3.781325e-03
2.790427e-02 -3.230693e-15 -4.099601e-03
2.898261e-02 2.073713e-14 -5.326268e-03
3.193768e-02 -2.287718e-14 -7.456665e-03
3.760635e-02 -5.619018e-15 -1.029918e-02
4.661313e-02 -3.749339e-14 -1.350480e-02
5.901690e-02 -2.692777e-14 -1.664351e-02
7.441454e-02 -2.799704e-14 -1.924513e-02
9.189934e-02 -2.167871e-14 -2.081630e-02
1.101428e-01 -2.646749e-14 -2.097692e-02
1.276745e-01 -1.075117e-14 -1.961049e-02
1.431515e-01 -2.246358e-14 -1.697652e-02
1.556513e-01 -1.110034e-14 -1.355170e-02
1.645926e-01 -1.556369e-14 -9.832957e-03
1.698275e-01 -7.839703e-15 -6.212865e-03
1.715578e-01 -2.577889e-14 -2.922358e-03
1.703647e-01 1.392919e-14 -8.934688e-05
1.669415e-01 1.767983e-15 2.217518e-03
1.618422e-01 4.306450e-15 3.908252e-03
1.556554e-01 1.037905e-14 4.958333e-03
1.488752e-01 -1.754851e-14 5.430979e-03
1.419784e-01 1.808289e-15 5.456194e-03
1.352714e-01 -1.809021e-14 5.337642e-03
1.287726e-01 -7.075375e-16 5.360780e-03
1.222590e-01 -4.374429e-14 5.811067e-03
1.151577e-01 -1.332901e-14 7.040223e-03
1.069007e-01 6.564615e-16 8.663389e-03
9.677096e-02 -8.657482e-15 1.168931e-02
8.401687e-02 9.493118e-15 1.369104e-02
6.869504e-02 1.590438e-14 1.841815e-02
4.950336e-02 -5.724408e-14 1.945788e-02
2.764527e-02 4.018391e-14 2.940722e-02
0.000000e+00 -1.853833e-14 4.344067e-02
0.000000e+00 1.125886e-14 -1.960967e-02
4.658043e-03 -1.510017e-14 -1.647282e-02
1.102659e-02 -3.114094e-14 -1.280150e-02
1.714512e-02 2.574574e-15 -1.086413e-02
2.212192e-02 -1.268697e-14 -8.616267e-03
2.547634e-02 -7.333061e-15 -6.816295e-03
2.741024e-02 1.098136e-14 -5.254400e-03
2.801008e-02 -9.133108e-15 -4.240109e-03
2.785790e-02 -3.155365e-15 -3.781325e-03
2.790427e-02 -1.791743e-14 -4.099601e-03
2.898261e-02 1.400018e-14 -5.326268e-03
3.193768e-02 -2.412390e-14 -7.456665e-03
3.760635e-02 -3.096720e-15 -1.029918e-02
4.661313e-02 -3.162646e-14 -1.350480e-02
5.901690e-02 -2.417272e-14 -1.664351e-02
7.441454e-02 -2.711998e-14 -1.924513e-02
9.189934e-02 -2.172796e-14 -2.081630e-02
1.101428e-01 -2.427105e-14 -2.097692e-02
1.276745e-01 -1.600062e-14 -1.961049e-02
1.431515e-01 -2.146629e-14 -1.697652e-02
1.556513e-01 -1.390361e-14 -1.355170e-02
1.645926e-01 -7.585249e-15 -9.832957e-03
1.698275e-01 -5.588473e-15 -6.212865e-03
1.715578e-01 -1.923566e-14 -2.922358e-03
1.703647e-01 1.138435e-14 -8.934688e-05
1.669415e-01 5.916631e-15 2.217518e-03
1.618422e-01 -1.982854e-15 3.908252e-03
1.556554e-01 1.506416e-14 4.958333e-03
1.488752e-01 -2.113415e-14 5.430979e-03
1.419784e-01 1.303039e-14 5.456194e-03
1.352714e-01 -1.842166e-14 5.337642e-03
1.287726e-01 2.955727e-15 5.360780e-03
1.222590e-01 -4.623543e-14 5.811067e-03
1.151577e-01 -3.476081e-15 7.040223e-03
1.069007e-01 -2.557052e-15 8.663389e-03
9.677096e-02 1.332851e-15 1.168931e-02
8.401687e-02 -6.368423e-15 1.369104e-02
6.869504e-02 1.803619e-14 1.841815e-02
4.950336e-02 -9.096615e-14 1.945788e-02
2.764527e-02 6.737239e-14 2.940722e-02
0.000000e+00 -1.590058e-14 4.344067e-02
0.000000e+00 5.879072e-15 -1.960967e-02
4.658043e-03 -2.375091e-14 -1.647282e-02
1.102659e-02 -2.289889e-14 -1.280150e-02
1.714512e-02 4.817976e-15 -1.086413e-02
2.212192e-02 -1.325804e-14 -8.616267e-03
2.547634e-02 -8.727826e-15 -6.816295e-03
2.741024e-02 9.698784e-15 -5.254400e-03
2.801008e-02 -3.291529e-15 -4.240109e-03
2.785790e-02 8.828461e-15 -3.781325e-03
2.790427e-02 -9.744857e-15 -4.099601e-03
2.898261e-02 2.023916e-14 -5.326268e-03
3.193768e-02 -2.424212e-14 -7.456665e-03
3.760635e-02 -2.833720e-15 -1.029918e-02
4.661313e-02 -3.423945e-14 -1.350480e-02
5.901690e-02 -2.114495e-14 -1.664351e-02
7.441454e-02 -2.745489e-14 -1.924513e-02
9.189934e-02 -2.479414e-14 -2.081630e-02
1.101428e-01 -2.397945e-14 -2.097692e-02
1.276745e-01 -1.442505e-14 -1.961049e-02
1.431515e-01 -1.936423e-14 -1.697652e-02
1.556513e-01 -1.005835e-14 -1.355170e-02
1.645926e-01 -8.477157e-15 -9.832957e-03
1.698275e-01 -3.965623e-15 -6.212865e-03
1.715578e-01 -1.396169e-14 -2.922358e-03
1.703647e-01 1.531903e-14 -8.934688e-05
1.669415e-01 1.296364e-14 2.217518e-03
1.618422e-01 3.604010e-15 3.908252e-03
1.556554e-01 2.097391e-14 4.958333e-03
1.488752e-01 -2.075840e-14 5.430979e-03
1.419784e-01 1.997808e-14 5.456194e-03
1.352714e-01 -1.928308e-14 5.337642e-03
1.287726e-01 4.952617e-15 5.360780e-03
1.222590e-01 -4.856693e-14 5.811067e-03
1.151577e-01 -6.933824e-15 7.040223e-03
1.069007e-01 5.595902e-15 8.663389e-03
9.677096e-02 3.734874e-15 1.168931e-02
8.401687e-02 7.747825e-15 1.369104e-02
6.869504e-02 2.271301e-15 1.841815e-02
4.950336e-02 -6.002007e-14 1.945788e-02
2.764527e-02 3.205323e-14 2.940722e-02
0.000000e+00 -2.722493e-14 4.344067e-02
0.000000e+00 -7.596019e-15 -1.960967e-02
4.658043e-03 -3.402635e-14 -1.647282e-02
1.102659e-02 -3.324498e-14 -1.280150e-02
1.714512e-02 1.017533e-14 -1.086413e-02
2.212192e-02 -1.032662e-14 -8.616267e-03
2.547634e-02 -5.076738e-16 -6.816295e-03
2.741024e-02 4.218730e-15 -5.254400e-03
2.801008e-02 7.802352e-15 -4.240109e-03
2.785790e-02 2.090400e-14 -3.781325e-03
2.790427e-02 1.707454e-15 -4.099601e-03