# vtk DataFile Version 3.0
vtk output
ASCII
DATASET UNSTRUCTURED_GRID
POINTS 11767 float
0.000000e+00 0.000000e+00 0.000000e+00
1.460000e-02 0.000000e+00 0.000000e+00
2.920000e-02 0.000000e+00 0.000000e+00
4.380000e-02 0.000000e+00 0.000000e+00
5.840000e-02 0.000000e+00 0.000000e+00
7.300000e-02 0.000000e+00 0.000000e+00
8.760000e-02 0.000000e+00 0.000000e+00
1.022000e-01 0.000000e+00 0.000000e+00
1.168000e-01 0.000000e+00 0.000000e+00
1.314000e-01 0.000000e+00 0.000000e+00
1.460000e-01 0.000000e+00 0.000000e+00
1.606000e-01 0.000000e+00 0.000000e+00
1.752000e-01 0.000000e+00 0.000000e+00
1.898000e-01 0.000000e+00 0.000000e+00
2.044000e-01 0.000000e+00 0.000000e+00
2.190000e-01 0.000000e+00 0.000000e+00
2.336000e-01 0.000000e+00 0.000000e+00
2.482000e-01 0.000000e+00 0.000000e+00
2.628000e-01 0.000000e+00 0.000000e+00
2.774000e-01 0.000000e+00 0.000000e+00
2.920000e-01 0.000000e+00 0.000000e+00
3.066000e-01 0.000000e+00 0.000000e+00
3.212000e-01 0.000000e+00 0.000000e+00
3.358000e-01 0.000000e+00 0.000000e+00
3.504000e-01 0.000000e+00 0.000000e+00
3.650000e-01 0.000000e+00 0.000000e+00
3.796000e-01 0.000000e+00 0.000000e+00
3.942000e-01 0.000000e+00 0.000000e+00
4.088000e-01 0.000000e+00 0.000000e+00
4.234000e-01 0.000000e+00 0.000000e+00
4.380000e-01 0.000000e+00 0.000000e+00
4.526000e-01 0.000000e+00 0.000000e+00
4.672000e-01 0.000000e+00 0.000000e+00
4.818000e-01 0.000000e+00 0.000000e+00
4.964000e-01 0.000000e+00 0.000000e+00
5.110000e-01 0.000000e+00 0.000000e+00
5.256000e-01 0.000000e+00 0.000000e+00
5.402000e-01 0.000000e+00 0.000000e+00
5.548000e-01 0.000000e+00 0.000000e+00
5.694000e-01 0.000000e+00 0.000000e+00
5.840000e-01 0.000000e+00 0.000000e+00
0.000000e+00 1.460000e-02 0.000000e+00
1.460000e-02 1.460000e-02 0.000000e+00
2.920000e-02 1.460000e-02 0.000000e+00
4.380000e-02 1.460000e-02 0.000000e+00
5.840000e-02 1.460000e-02 0.000000e+00
7.300000e-02 1.460000e-02 0.000000e+00
8.760000e-02 1.460000e-02 0.000000e+00
1.022000e-01 1.460000e-02 0.000000e+00
1.168000e-01 1.460000e-02 0.000000e+00
1.314000e-01 1.460000e-02 0.000000e+00
1.460000e-01 1.460000e-02 0.000000e+00
1.606000e-01 1.460000e-02 0.000000e+00
1.752000e-01 1.460000e-02 0.000000e+00
1.898000e-01 1.460000e-02 0.000000e+00
2.044000e-01 1.460000e-02 0.000000e+00
2.190000e-01 1.460000e-02 0.000000e+00
2.336000e-01 1.460000e-02 0.000000e+00
2.482000e-01 1.460000e-02 0.000000e+00
2.628000e-01 1.460000e-02 0.000000e+00
2.774000e-01 1.460000e-02 0.000000e+00
2.920000e-01 1.460000e-02 0.000000e+00
3.066000e-01 1.460000e-02 0.000000e+00
3.212000e-01 1.460000e-02 0.000000e+00
3.358000e-01 1.460000e-02 0.000000e+00
3.504000e-01 1.460000e-02 0.000000e+00
3.650000e-01 1.460000e-02 0.000000e+00
3.796000e-01 1.460000e-02 0.000000e+00
3.942000e-01 1.460000e-02 0.000000e+00
4.088000e-01 1.460000e-02 0.000000e+00
4.234000e-01 1.460000e-02 0.000000e+00
4.380000e-01 1.460000e-02 0.000000e+00
4.526000e-01 1.460000e-02 0.000000e+00
4.672000e-01 1.460000e-02 0.000000e+00
4.818000e-01 1.460000e-02 0.000000e+00
4.964000e-01 1.460000e-02 0.000000e+00
5.110000e-01 1.460000e-02 0.000000e+00
5.256000e-01 1.460000e-02 0.000000e+00
5.402000e-01 1.460000e-02 0.000000e+00
5.548000e-01 1.460000e-02 0.000000e+00
5.694000e-01 1.460000e-02 0.000000e+00
5.840000e-01 1.460000e-02 0.000000e+00
0.000000e+00 2.920000e-02 0.000000e+00
1.460000e-02 2.920000e-02 0.000000e+00
2.920000e-02 2.920000e-02 0.000000e+00
4.380000e-02 2.920000e-02 0.000000e+00
5.840000e-02 2.920000e-02 0.000000e+00
7.300000e-02 2.920000e-02 0.000000e+00
8.760000e-02 2.920000e-02 0.000000e+00
1.022000e-01 2.920000e-02 0.000000e+00
1.168000e-01 2.920000e-02 0.000000e+00
1.314000e-01 2.920000e-02 0.000000e+00
1.460000e-01 2.920000e-02 0.000000e+00
1.606000e-01 2.920000e-02 0.000000e+00
1.752000e-01 2.920000e-02 0.000000e+00
1.898000e-01 2.920000e-02 0.000000e+00
2.044000e-01 2.920000e-02 0.000000e+00
2.190000e-01 2.920000e-02 0.000000e+00
2.336000e-01 2.920000e-02 0.000000e+00
2.482000e-01 2.920000e-02 0.000000e+00
2.628000e-01 2.920000e-02 0.000000e+00
2.774000e-01 2.920000e-02 0.000000e+00
2.920000e-01 2.920000e-02 0.000000e+00
3.066000e-01 2.920000e-02 0.000000e+00
3.212000e-01 2.920000e-02 0.000000e+00
3.358000e-01 2.920000e-02 0.000000e+00
3.504000e-01 2.920000e-02 0.000000e+00
3.650000e-01 2.920000e-02 0.000000e+00
3.796000e-01 2.920000e-02 0.000000e+00
3.942000e-01 2.920000e-02 0.000000e+00
4.088000e-01 2.920000e-02 0.000000e+00
4.234000e-01 2.920000e-02 0.000000e+00
4.380000e-01 2.920000e-02 0.000000e+00
4.526000e-01 2.920000e-02 0.000000e+00
4.672000e-01 2.920000e-02 0.000000e+00
4.818000e-01 2.920000e-02 0.000000e+00
4.964000e-01 2.920000e-02 0.000000e+00
5.110000e-01 2.920000e-02 0.000000e+00
5.256000e-01 2.920000e-02 0.000000e+00
5.402000e-01 2.920000e-02 0.000000e+00
5.548000e-01 2.920000e-02 0.000000e+00
5.694000e-01 2.920000e-02 0.000000e+00
5.840000e-01 2.920000e-02 0.000000e+00
0.000000e+00 4.380000e-02 0.000000e+00
1.460000e-02 4.380000e-02 0.000000e+00
2.920000e-02 4.380000e-02 0.000000e+00
4.380000e-02 4.380000e-02 0.000000e+00
5.840000e-02 4.380000e-02 0.000000e+00
7.300000e-02 4.380000e-02 0.000000e+00
8.760000e-02 4.380000e-02 0.000000e+00
1.022000e-01 4.380000e-02 0.000000e+00
1.168000e-01 4.380000e-02 0.000000e+00
1.314000e-01 4.380000e-02 0.000000e+00
1.460000e-01 4.380000e-02 0.000000e+00
1.606000e-01 4.380000e-02 0.000000e+00
1.752000e-01 4.380000e-02 0.000000e+00
1.898000e-01 4.380000e-02 0.000000e+00
2.044000e-01 4.380000e-02 0.000000e+00
2.190000e-01 4.380000e-02 0.000000e+00
2.336000e-01 4.380000e-02 0.000000e+00
2.482000e-01 4.380000e-02 0.000000e+00
2.628000e-01 4.380000e-02 0.000000e+00
2.774000e-01 4.380000e-02 0.000000e+00
2.920000e-01 4.380000e-02 0.000000e+00
3.066000e-01 4.380000e-02 0.000000e+00
3.212000e-01 4.380000e-02 0.000000e+00
3.358000e-01 4.380000e-02 0.000000e+00
3.504000e-01 4.380000e-02 0.000000e+00
3.650000e-01 4.380000e-02 0.000000e+00
3.796000e-01 4.380000e-02 0.000000e+00
3.942000e-01 4.380000e-02 0.000000e+00
4.088000e-01 4.380000e-02 0.000000e+00
4.234000e-01 4.380000e-02 0.000000e+00
4.380000e-01 4.380000e-02 0.000000e+00
4.526000e-01 4.380000e-02 0.000000e+00
4.672000e-01 4.380000e-02 0.000000e+00
4.818000e-01 4.380000e-02 0.000000e+00
4.964000e-01 4.380000e-02 0.000000e+00
5.110000e-01 4.380000e-02 0.000000e+00
5.256000e-01 4.380000e-02 0.000000e+00
5.402000e-01 4.380000e-02 0.000000e+00
5.548000e-01 4.380000e-02 0.000000e+00
5.694000e-01 4.380000e-02 0.000000e+00
5.840000e-01 4.380000e-02 0.000000e+00
0.000000e+00 5.840000e-02 0.000000e+00
1.460000e-02 5.840000e-02 0.000000e+00
2.920000e-02 5.840000e-02 0.000000e+00
4.380000e-02 5.840000e-02 0.000000e+00
5.840000e-02 5.840000e-02 0.000000e+00
7.300000e-02 5.840000e-02 0.000000e+00
8.760000e-02 5.840000e-02 0.000000e+00
1.022000e-01 5.840000e-02 0.000000e+00
1.168000e-01 5.840000e-02 0.000000e+00
1.314000e-01 5.840000e-02 0.000000e+00
1.460000e-01 5.840000e-02 0.000000e+00
1.606000e-01 5.840000e-02 0.000000e+00
1.752000e-01 5.840000e-02 0.000000e+00
1.898000e-01 5.840000e-02 0.000000e+00
2.044000e-01 5.840000e-02 0.000000e+00
2.190000e-01 5.840000e-02 0.000000e+00
2.336000e-01 5.840000e-02 0.000000e+00
2.482000e-01 5.840000e-02 0.000000e+00
2.628000e-01 5.840000e-02 0.000000e+00
2.774000e-01 5.840000e-02 0.000000e+00
2.920000e-01 5.840000e-02 0.000000e+00
3.066000e-01 5.840000e-02 0.000000e+00
3.212000e-01 5.840000e-02 0.000000e+00
3.358000e-01 5.840000e-02 0.000000e+00
3.504000e-01 5.840000e-02 0.000000e+00
3.650000e-01 5.840000e-02 0.000000e+00
3.796000e-01 5.840000e-02 0.000000e+00
3.942000e-01 5.840000e-02 0.000000e+00
4.088000e-01 5.840000e-02 0.000000e+00
4.234000e-01 5.840000e-02 0.000000e+00
4.380000e-01 5.840000e-02 0.000000e+00
4.526000e-01 5.840000e-02 0.000000e+00
4.672000e-01 5.840000e-02 0.000000e+00
4.818000e-01 5.840000e-02 0.000000e+00
4.964000e-01 5.840000e-02 0.000000e+00
5.110000e-01 5.840000e-02 0.000000e+00
5.256000e-01 5.840000e-02 0.000000e+00
5.402000e-01 5.840000e-02 0.000000e+00
5.548000e-01 5.840000e-02 0.000000e+00
5.694000e-01 5.840000e-02 0.000000e+00
5.840000e-01 5.840000e-02 0.000000e+00
0.000000e+00 7.300000e-02 0.000000e+00
1.460000e-02 7.300000e-02 0.000000e+00
2.920000e-02 7.300000e-02 0.000000e+00
4.380000e-02 7.300000e-02 0.000000e+00
5.840000e-02 7.300000e-02 0.000000e+00
7.300000e-02 7.300000e-02 0.000000e+00
8.760000e-02 7.300000e-02 0.000000e+00
1.022000e-01 7.300000e-02 0.000000e+00
1.168000e-01 7.300000e-02 0.000000e+00
1.314000e-01 7.300000e-02 0.000000e+00
1.460000e-01 7.300000e-02 0.000000e+00
1.606000e-01 7.300000e-02 0.000000e+00
1.752000e-01 7.300000e-02 0.000000e+00
1.898000e-01 7.300000e-02 0.000000e+00
2.044000e-01 7.300000e-02 0.000000e+00
2.190000e-01 7.300000e-02 0.000000e+00
2.336000e-01 7.300000e-02 0.000000e+00
2.482000e-01 7.300000e-02 0.000000e+00
2.628000e-01 7.300000e-02 0.000000e+00
2.774000e-01 7.300000e-02 0.000000e+00
2.920000e-01 7.300000e-02 0.000000e+00
3.066000e-01 7.300000e-02 0.000000e+00
3.212000e-01 7.300000e-02 0.000000e+00
3.358000e-01 7.300000e-02 0.000000e+00
3.504000e-01 7.300000e-02 0.000000e+00
3.650000e-01 7.300000e-02 0.000000e+00
3.796000e-01 7.300000e-02 0.000000e+00
3.942000e-01 7.300000e-02 0.000000e+00
4.088000e-01 7.300000e-02 0.000000e+00
4.234000e-01 7.300000e-02 0.000000e+00
4.380000e-01 7.300000e-02 0.000000e+00
4.526000e-01 7.300000e-02 0.000000e+00
4.672000e-01 7.300000e-02 0.000000e+00
4.818000e-01 7.300000e-02 0.000000e+00
4.964000e-01 7.300000e-02 0.000000e+00
5.110000e-01 7.300000e-02 0.000000e+00
5.256000e-01 7.300000e-02 0.000000e+00
5.402000e-01 7.300000e-02 0.000000e+00
5.548000e-01 7.300000e-02 0.000000e+00
5.694000e-01 7.300000e-02 0.000000e+00
5.840000e-01 7.300000e-02 0.000000e+00
0.000000e+00 8.760000e-02 0.000000e+00
1.460000e-02 8.760000e-02 0.000000e+00
2.920000e-02 8.760000e-02 0.000000e+00
4.380000e-02 8.760000e-02 0.000000e+00
5.840000e-02 8.760000e-02 0.000000e+00
7.300000e-02 8.760000e-02 0.000000e+00
8.760000e-02 8.760000e-02 0.000000e+00
1.022000e-01 8.760000e-02 0.000000e+00
[...]
POINT_DATA 11767
VECTORS Velocity float
0.000000e+00 0.000000e+00 0.000000e+00
2.283244e-03 0.000000e+00 0.000000e+00
-7.850064e-04 0.000000e+00 0.000000e+00
-4.440726e-03 0.000000e+00 0.000000e+00
-8.262238e-03 0.000000e+00 0.000000e+00
-1.098573e-02 0.000000e+00 0.000000e+00
-1.264562e-02 0.000000e+00 0.000000e+00
-1.291928e-02 0.000000e+00 0.000000e+00
-1.186449e-02 0.000000e+00 0.000000e+00
-9.413516e-03 0.000000e+00 0.000000e+00
-5.653527e-03 0.000000e+00 0.000000e+00
-7.020430e-04 0.000000e+00 0.000000e+00
5.233028e-03 0.000000e+00 0.000000e+00
1.194102e-02 0.000000e+00 0.000000e+00
1.909984e-02 0.000000e+00 0.000000e+00
2.653684e-02 0.000000e+00 0.000000e+00
3.396021e-02 0.000000e+00 0.000000e+00
4.120761e-02 0.000000e+00 0.000000e+00
4.807513e-02 0.000000e+00 0.000000e+00
5.450588e-02 0.000000e+00 0.000000e+00
6.037412e-02 0.000000e+00 0.000000e+00
6.563667e-02 0.000000e+00 0.000000e+00
7.022344e-02 0.000000e+00 0.000000e+00
7.416042e-02 0.000000e+00 0.000000e+00
7.745957e-02 0.000000e+00 0.000000e+00
8.020974e-02 0.000000e+00 0.000000e+00
8.246682e-02 0.000000e+00 0.000000e+00
8.436419e-02 0.000000e+00 0.000000e+00
8.594603e-02 0.000000e+00 0.000000e+00
8.730746e-02 0.000000e+00 0.000000e+00
8.840874e-02 0.000000e+00 0.000000e+00
8.921871e-02 0.000000e+00 0.000000e+00
8.962661e-02 0.000000e+00 0.000000e+00
8.936701e-02 0.000000e+00 0.000000e+00
8.832250e-02 0.000000e+00 0.000000e+00
8.605297e-02 0.000000e+00 0.000000e+00
8.170390e-02 0.000000e+00 0.000000e+00
7.585494e-02 0.000000e+00 0.000000e+00
6.280240e-02 0.000000e+00 0.000000e+00
4.714281e-02 0.000000e+00 0.000000e+00
0.000000e+00 0.000000e+00 0.000000e+00
0.000000e+00 -1.751904e-13 0.000000e+00
2.283244e-03 -8.989806e-14 0.000000e+00
-7.850064e-04 2.191004e-14 0.000000e+00
-4.440726e-03 2.433552e-13 0.000000e+00
-8.262238e-03 4.822784e-13 0.000000e+00
-1.098573e-02 5.268455e-13 0.000000e+00
-1.264562e-02 4.631699e-13 0.000000e+00
-1.291928e-02 3.341013e-13 0.000000e+00
-1.186449e-02 1.803702e-13 0.000000e+00
-9.413516e-03 1.297454e-13 0.000000e+00
-5.653527e-03 1.036617e-13 0.000000e+00
-7.020430e-04 8.450653e-14 0.000000e+00
5.233028e-03 1.578083e-13 0.000000e+00
1.194102e-02 1.517710e-13 0.000000e+00
1.909984e-02 1.282256e-13 0.000000e+00
2.653684e-02 5.000144e-14 0.000000e+00
3.396021e-02 -1.011671e-13 0.000000e+00
4.120761e-02 -1.198348e-13 0.000000e+00
4.807513e-02 -1.536052e-13 0.000000e+00
5.450588e-02 -1.646756e-13 0.000000e+00
6.037412e-02 -1.339862e-13 0.000000e+00
6.563667e-02 -1.265149e-13 0.000000e+00
7.022344e-02 -1.403173e-13 0.000000e+00
7.416042e-02 -1.153902e-13 0.000000e+00
7.745957e-02 -1.459799e-13 0.000000e+00
8.020974e-02 -4.486022e-14 0.000000e+00
8.246682e-02 -8.498700e-14 0.000000e+00
8.436419e-02 2.516108e-14 0.000000e+00
8.594603e-02 3.006101e-14 0.000000e+00
8.730746e-02 6.171758e-14 0.000000e+00
8.840874e-02 2.437188e-14 0.000000e+00
8.921871e-02 6.592788e-14 0.000000e+00
8.962661e-02 1.794009e-14 0.000000e+00
8.936701e-02 9.419063e-14 0.000000e+00
8.832250e-02 1.596628e-14 0.000000e+00
8.605297e-02 1.183642e-13 0.000000e+00
8.170390e-02 7.706268e-14 0.000000e+00
7.585494e-02 2.115708e-13 0.000000e+00
6.280240e-02 1.500098e-13 0.000000e+00
4.714281e-02 2.877846e-13 0.000000e+00
0.000000e+00 5.654657e-13 0.000000e+00
0.000000e+00 -2.982691e-13 0.000000e+00
2.283244e-03 -1.498415e-13 0.000000e+00
-7.850064e-04 -1.247134e-14 0.000000e+00
-4.440726e-03 2.634625e-13 0.000000e+00
-8.262238e-03 5.928978e-13 0.000000e+00
-1.098573e-02 6.554972e-13 0.000000e+00
-1.264562e-02 6.098265e-13 0.000000e+00
-1.291928e-02 4.354063e-13 0.000000e+00
-1.186449e-02 2.904886e-13 0.000000e+00
-9.413516e-03 2.027370e-13 0.000000e+00
-5.653527e-03 2.243941e-13 0.000000e+00
-7.020430e-04 1.570283e-13 0.000000e+00
5.233028e-03 2.589474e-13 0.000000e+00
1.194102e-02 2.266769e-13 0.000000e+00
1.909984e-02 1.716302e-13 0.000000e+00
2.653684e-02 4.159642e-14 0.000000e+00
3.396021e-02 -1.438439e-13 0.000000e+00
4.120761e-02 -1.952007e-13 0.000000e+00
4.807513e-02 -2.222510e-13 0.000000e+00
5.450588e-02 -2.272880e-13 0.000000e+00
6.037412e-02 -1.628651e-13 0.000000e+00
6.563667e-02 -1.512701e-13 0.000000e+00
7.022344e-02 -1.197263e-13 0.000000e+00
7.416042e-02 -7.806663e-14 0.000000e+00
7.745957e-02 -1.161637e-13 0.000000e+00
8.020974e-02 -1.208852e-14 0.000000e+00
8.246682e-02 -8.322253e-14 0.000000e+00
8.436419e-02 2.872330e-14 0.000000e+00
8.594603e-02 7.837252e-15 0.000000e+00
8.730746e-02 7.704342e-14 0.000000e+00
8.840874e-02 4.152478e-14 0.000000e+00
8.921871e-02 1.097038e-13 0.000000e+00
8.962661e-02 4.976274e-14 0.000000e+00
8.936701e-02 1.064752e-13 0.000000e+00
8.832250e-02 5.700161e-14 0.000000e+00
8.605297e-02 1.355909e-13 0.000000e+00
8.170390e-02 1.472087e-13 0.000000e+00
7.585494e-02 2.562755e-13 0.000000e+00
6.280240e-02 2.639142e-13 0.000000e+00
4.714281e-02 3.612804e-13 0.000000e+00
0.000000e+00 8.521871e-13 0.000000e+00
0.000000e+00 -2.174638e-13 0.000000e+00
2.283244e-03 -1.678341e-13 0.000000e+00
-7.850064e-04 -8.185753e-14 0.000000e+00
-4.440726e-03 6.613515e-14 0.000000e+00
-8.262238e-03 2.873662e-13 0.000000e+00
-1.098573e-02 3.367220e-13 0.000000e+00
-1.264562e-02 3.868244e-13 0.000000e+00
-1.291928e-02 3.459780e-13 0.000000e+00
-1.186449e-02 2.999834e-13 0.000000e+00
-9.413516e-03 2.401930e-13 0.000000e+00
-5.653527e-03 3.064350e-13 0.000000e+00
-7.020430e-04 2.305022e-13 0.000000e+00
5.233028e-03 2.861754e-13 0.000000e+00
1.194102e-02 1.811948e-13 0.000000e+00
1.909984e-02 1.208804e-13 0.000000e+00
2.653684e-02 2.645808e-14 0.000000e+00
3.396021e-02 -1.219935e-13 0.000000e+00
4.120761e-02 -1.324180e-13 0.000000e+00
4.807513e-02 -1.717028e-13 0.000000e+00
5.450588e-02 -1.744324e-13 0.000000e+00
6.037412e-02 -1.064370e-13 0.000000e+00
6.563667e-02 -7.330056e-14 0.000000e+00
7.022344e-02 -3.717223e-14 0.000000e+00
7.416042e-02 2.844596e-14 0.000000e+00
7.745957e-02 -2.729187e-14 0.000000e+00
8.020974e-02 7.138943e-14 0.000000e+00
8.246682e-02 -5.497547e-14 0.000000e+00
8.436419e-02 3.532366e-14 0.000000e+00
8.594603e-02 -9.110422e-15 0.000000e+00
8.730746e-02 8.266897e-14 0.000000e+00
8.840874e-02 6.350276e-14 0.000000e+00
8.921871e-02 1.389091e-13 0.000000e+00
8.962661e-02 6.174178e-14 0.000000e+00
8.936701e-02 1.161503e-13 0.000000e+00
8.832250e-02 5.546287e-14 0.000000e+00
8.605297e-02 1.506331e-13 0.000000e+00
8.170390e-02 1.231576e-13 0.000000e+00
7.585494e-02 2.694502e-13 0.000000e+00
6.280240e-02 2.118284e-13 0.000000e+00
4.714281e-02 3.809166e-13 0.000000e+00
0.000000e+00 8.459186e-13 0.000000e+00
0.000000e+00 -1.638190e-13 0.000000e+00
2.283244e-03 -1.556009e-13 0.000000e+00
-7.850064e-04 -1.410540e-13 0.000000e+00
-4.440726e-03 -1.375352e-13 0.000000e+00
-8.262238e-03 -6.525444e-14 0.000000e+00
-1.098573e-02 -5.130375e-14 0.000000e+00
-1.264562e-02 6.886950e-14 0.000000e+00
-1.291928e-02 1.474972e-13 0.000000e+00
-1.186449e-02 2.465007e-13 0.000000e+00
-9.413516e-03 2.242791e-13 0.000000e+00
-5.653527e-03 3.297331e-13 0.000000e+00
-7.020430e-04 2.364229e-13 0.000000e+00
5.233028e-03 2.721075e-13 0.000000e+00
1.194102e-02 9.959571e-14 0.000000e+00
1.909984e-02 6.223125e-14 0.000000e+00
2.653684e-02 1.265222e-14 0.000000e+00
3.396021e-02 -3.922388e-14 0.000000e+00
4.120761e-02 -2.544192e-14 0.000000e+00
4.807513e-02 -5.090047e-14 0.000000e+00
5.450588e-02 -6.955262e-14 0.000000e+00
6.037412e-02 -2.640301e-14 0.000000e+00
6.563667e-02 -3.369692e-14 0.000000e+00
7.022344e-02 -1.011324e-14 0.000000e+00
7.416042e-02 2.352408e-14 0.000000e+00
7.745957e-02 -3.239802e-14 0.000000e+00
8.020974e-02 5.524675e-14 0.000000e+00
8.246682e-02 -4.577512e-14 0.000000e+00
8.436419e-02 4.302193e-14 0.000000e+00
8.594603e-02 1.313847e-14 0.000000e+00
8.730746e-02 9.197932e-14 0.000000e+00
8.840874e-02 6.994248e-14 0.000000e+00
8.921871e-02 1.463293e-13 0.000000e+00
8.962661e-02 7.227729e-14 0.000000e+00
8.936701e-02 1.159139e-13 0.000000e+00
8.832250e-02 5.579830e-14 0.000000e+00
8.605297e-02 1.260876e-13 0.000000e+00
8.170390e-02 1.203961e-13 0.000000e+00
7.585494e-02 2.149610e-13 0.000000e+00
6.280240e-02 2.072931e-13 0.000000e+00
4.714281e-02 2.953106e-13 0.000000e+00
0.000000e+00 7.150362e-13 0.000000e+00
0.000000e+00 -1.342480e-13 0.000000e+00
2.283244e-03 -1.173533e-13 0.000000e+00
-7.850064e-04 -1.263994e-13 0.000000e+00
-4.440726e-03 -1.527124e-13 0.000000e+00
-8.262238e-03 -1.602634e-13 0.000000e+00
-1.098573e-02 -1.377983e-13 0.000000e+00
-1.264562e-02 -6.057196e-14 0.000000e+00
-1.291928e-02 5.260339e-14 0.000000e+00
-1.186449e-02 1.298799e-13 0.000000e+00
-9.413516e-03 1.417069e-13 0.000000e+00
-5.653527e-03 2.101609e-13 0.000000e+00
-7.020430e-04 1.674020e-13 0.000000e+00
5.233028e-03 1.688522e-13 0.000000e+00
1.194102e-02 2.293531e-14 0.000000e+00
1.909984e-02 1.626663e-14 0.000000e+00
2.653684e-02 1.083738e-14 0.000000e+00
3.396021e-02 -2.137575e-14 0.000000e+00
4.120761e-02 3.277507e-14 0.000000e+00
4.807513e-02 4.922769e-15 0.000000e+00
5.450588e-02 -1.932051e-14 0.000000e+00
6.037412e-02 -1.157464e-14 0.000000e+00
6.563667e-02 -2.237590e-14 0.000000e+00
7.022344e-02 -4.712130e-14 0.000000e+00
7.416042e-02 -3.191900e-14 0.000000e+00
7.745957e-02 -7.465521e-14 0.000000e+00
8.020974e-02 8.250860e-15 0.000000e+00
8.246682e-02 -5.547832e-14 0.000000e+00
8.436419e-02 3.197185e-14 0.000000e+00
8.594603e-02 3.024018e-14 0.000000e+00
8.730746e-02 7.496186e-14 0.000000e+00
8.840874e-02 5.128958e-14 0.000000e+00
8.921871e-02 1.043455e-13 0.000000e+00
8.962661e-02 4.035787e-14 0.000000e+00
8.936701e-02 1.004517e-13 0.000000e+00
8.832250e-02 1.544855e-14 0.000000e+00
8.605297e-02 1.063106e-13 0.000000e+00
8.170390e-02 4.852736e-14 0.000000e+00
7.585494e-02 1.718604e-13 0.000000e+00
6.280240e-02 9.352617e-14 0.000000e+00
4.714281e-02 2.354217e-13 0.000000e+00
0.000000e+00 4.586613e-13 0.000000e+00
0.000000e+00 0.000000e+00 0.000000e+00
2.283244e-03 0.000000e+00 0.000000e+00
-7.850064e-04 0.000000e+00 0.000000e+00
-4.440726e-03 0.000000e+00 0.000000e+00
-8.262238e-03 0.000000e+00 0.000000e+00
-1.098573e-02 0.000000e+00 0.000000e+00
-1.264562e-02 0.000000e+00 0.000000e+00
-1.291928e-02 0.000000e+00 0.000000e+00
-1.186449e-02 0.000000e+00 0.000000e+00
-9.413516e-03 0.000000e+00 0.000000e+00
-5.653527e-03 0.000000e+00 0.000000e+00
-7.020430e-04 0.000000e+00 0.000000e+00
5.233028e-03 0.000000e+00 0.000000e+00
1.194102e-02 0.000000e+00 0.000000e+00
1.909984e-02 0.000000e+00 0.000000e+00
2.653684e-02 0.000000e+00 0.000000e+00
3.396021e-02 0.000000e+00 0.000000e+00
4.120761e-02 0.000000e+00 0.000000e+00
4.807513e-02 0.000000e+00 0.000000e+00
5.450588e-02 0.000000e+00 0.000000e+00
6.037412e-02 0.000000e+00 0.000000e+00
6.563667e-02 0.000000e+00 0.000000e+00
7.022344e-02 0.000000e+00 0.000000e+00
7.416042e-02 0.000000e+00 0.000000e+00
7.745957e-02 0.000000e+00 0.000000e+00
8.020974e-02 0.000000e+00 0.000000e+00
8.246682e-02 0.000000e+00 0.000000e+00
8.436419e-02 0.000000e+00 0.000000e+00
8.594603e-02 0.000000e+00 0.000000e+00
8.730746e-02 0.000000e+00 0.000000e+00
8.840874e-02 0.000000e+00 0.000000e+00
8.921871e-02 0.000000e+00 0.000000e+00
8.962661e-02 0.000000e+00 0.000000e+00
8.936701e-02 0.000000e+00 0.000000e+00
8.832250e-02 0.000000e+00 0.000000e+00
8.605297e-02 0.000000e+00 0.000000e+00
8.170390e-02 0.000000e+00 0.000000e+00
7.585494e-02 0.000000e+00 0.000000e+00
6.280240e-02 0.000000e+00 0.000000e+00
4.714281e-02 0.000000e+00 0.000000e+00
0.000000e+00 0.000000e+00 0.000000e+00
0.000000e+00 0.000000e+00 -4.808426e-04
-1.264688e-02 0.000000e+00 1.761892e-03
-2.305034e-02 0.000000e+00 3.513870e-03
-3.255338e-02 0.000000e+00 3.016048e-03
-4.031428e-02 0.000000e+00 2.148150e-03
-4.615324e-02 0.000000e+00 6.022602e-04
-4.962398e-02 0.000000e+00 -9.580628e-04
-5.098344e-02 0.000000e+00 -2.567477e-03
-5.043200e-02 0.000000e+00 -4.047181e-03
-4.832082e-02 0.000000e+00 -5.468165e-03
-4.474295e-02 0.000000e+00 -6.768732e-03
-3.993085e-02 0.000000e+00 -7.870033e-03
-3.420368e-02 0.000000e+00 -8.682118e-03
-2.813368e-02 0.000000e+00 -9.114899e-03
-2.218752e-02 0.000000e+00 -9.247117e-03
-1.673035e-02 0.000000e+00 -9.142378e-03
-1.186209e-02 0.000000e+00 -8.892030e-03
-7.499440e-03 0.000000e+00 -8.538920e-03
-3.601363e-03 0.000000e+00 -8.131607e-03
-4.772244e-05 0.000000e+00 -7.682139e-03
3.134313e-03 0.000000e+00 -7.180882e-03
6.030213e-03 0.000000e+00 -6.647996e-03
8.602972e-03 0.000000e+00 -6.114319e-03
1.098097e-02 0.000000e+00 -5.616520e-03
1.316384e-02 0.000000e+00 -5.180060e-03
1.529805e-02 0.000000e+00 -4.808079e-03
1.735265e-02 0.000000e+00 -4.524741e-03
1.948632e-02 0.000000e+00 -4.327546e-03
2.170032e-02 0.000000e+00 -4.218338e-03
2.419308e-02 0.000000e+00 -4.147838e-03
2.682152e-02 0.000000e+00 -4.008739e-03
2.953305e-02 0.000000e+00 -3.763081e-03
3.194883e-02 0.000000e+00 -3.304792e-03
3.400448e-02 0.000000e+00 -2.599956e-03
3.522102e-02 0.000000e+00 -1.792560e-03
3.551859e-02 0.000000e+00 3.981478e-05
3.433674e-02 0.000000e+00 8.911563e-04
3.164087e-02 0.000000e+00 5.799563e-03
2.582405e-02 0.000000e+00 7.319559e-03
1.705379e-02 0.000000e+00 2.205901e-02
0.000000e+00 0.000000e+00 4.091063e-02
0.000000e+00 5.402106e-14 -4.808426e-04
-1.264688e-02 3.630056e-14 1.761892e-03
-2.305034e-02 2.462078e-15 3.513870e-03
-3.255338e-02 -1.201042e-13 3.016049e-03
-4.031428e-02 -3.341749e-13 2.148150e-03
-4.615324e-02 -3.805889e-13 6.022602e-04
-4.962398e-02 -3.296041e-13 -9.580628e-04
-5.098344e-02 -1.634936e-13 -2.567477e-03
-5.043200e-02 -3.799735e-14 -4.047181e-03
-4.832082e-02 -1.001235e-14 -5.468165e-03
-4.474295e-02 1.480880e-14 -6.768732e-03
-3.993085e-02 -3.077201e-14 -7.870033e-03
-3.420368e-02 -8.417069e-14 -8.682118e-03
-2.813368e-02 -2.655715e-13 -9.114899e-03
-2.218752e-02 -2.261539e-13 -9.247117e-03
-1.673035e-02 -1.901661e-13 -9.142378e-03
-1.186209e-02 -5.975660e-14 -8.892030e-03
-7.499440e-03 3.150613e-14 -8.538920e-03
-3.601363e-03 3.342733e-14 -8.131607e-03
-4.772244e-05 3.739166e-14 -7.682139e-03
3.134313e-03 8.508526e-14 -7.180882e-03
6.030213e-03 7.526320e-15 -6.647996e-03
8.602972e-03 4.304800e-14 -6.114319e-03
1.098097e-02 -6.181766e-14 -5.616520e-03
1.316384e-02 -7.593853e-14 -5.180060e-03
1.529805e-02 -2.511137e-13 -4.808079e-03
1.735265e-02 -3.669773e-13 -4.524741e-03
1.948632e-02 -3.950971e-13 -4.327546e-03
2.170032e-02 -4.236522e-13 -4.218338e-03
2.419308e-02 -2.211381e-13 -4.147838e-03
2.682152e-02 2.917589e-14 -4.008739e-03
2.953305e-02 2.441491e-13 -3.763081e-03
3.194883e-02 2.407119e-13 -3.304792e-03
3.400448e-02 2.782348e-13 -2.599956e-03
3.522102e-02 9.305287e-14 -1.792560e-03
3.551859e-02 1.364321e-13 3.981478e-05
3.433674e-02 -7.239966e-14 8.911563e-04
3.164087e-02 5.243954e-14 5.799563e-03
2.582405e-02 -1.629841e-13 7.319559e-03
1.705379e-02 -4.847105e-14 2.205901e-02
0.000000e+00 -2.771109e-13 4.091063e-02
0.000000e+00 8.909157e-14 -4.808426e-04
-1.264688e-02 6.774927e-14 1.761892e-03
-2.305034e-02 1.611422e-14 3.513870e-03
-3.255338e-02 -1.207409e-13 3.016049e-03
-4.031428e-02 -4.092743e-13 2.148150e-03
-4.615324e-02 -4.495192e-13 6.022602e-04
-4.962398e-02 -3.932607e-13 -9.580628e-04
-5.098344e-02 -1.979612e-13 -2.567477e-03
-5.043200e-02 -3.985879e-14 -4.047181e-03
-4.832082e-02 -2.251376e-14 -5.468165e-03
-4.474295e-02 1.074910e-14 -6.768732e-03
-3.993085e-02 -7.638657e-14 -7.870033e-03
-3.420368e-02 -1.290730e-13 -8.682118e-03
-2.813368e-02 -3.556591e-13 -9.114899e-03
-2.218752e-02 -2.841031e-13 -9.247117e-03
-1.673035e-02 -2.357329e-13 -9.142378e-03
-1.186209e-02 -5.140883e-14 -8.892030e-03
-7.499440e-03 3.577419e-14 -8.538920e-03
-3.601363e-03 9.083287e-14 -8.131607e-03
-4.772244e-05 5.066671e-14 -7.682139e-03
3.134313e-03 1.295533e-13 -7.180882e-03
6.030213e-03 2.685115e-14 -6.647996e-03
8.602972e-03 1.208925e-13 -6.114319e-03
1.098097e-02 6.619920e-16 -5.616520e-03
1.316384e-02 5.743277e-14 -5.180060e-03
1.529805e-02 -1.043853e-13 -4.808079e-03
1.735265e-02 -1.699595e-13 -4.524741e-03
1.948632e-02 -2.820623e-13 -4.327546e-03
2.170032e-02 -3.973516e-13 -4.218338e-03
2.419308e-02 -3.671587e-13 -4.147838e-03
2.682152e-02 -2.609902e-13 -4.008739e-03
2.953305e-02 -5.202088e-14 -3.763081e-03
3.194883e-02 2.779160e-16 -3.304792e-03
3.400448e-02 1.983745e-13 -2.599956e-03
3.522102e-02 8.590459e-14 -1.792560e-03
3.551859e-02 1.542634e-13 3.981478e-05
3.433674e-02 -2.457992e-14 8.911563e-04
3.164087e-02 5.210825e-14 5.799563e-03
2.582405e-02 -6.402291e-14 7.319559e-03
1.705379e-02 -6.576069e-14 2.205901e-02
0.000000e+00 -3.157321e-13 4.091063e-02
0.000000e+00 1.238529e-13 -4.808426e-04
-1.264688e-02 1.101713e-13 1.761892e-03
-2.305034e-02 7.955627e-14 3.513870e-03
-3.255338e-02 3.866991e-14 3.016049e-03
-4.031428e-02 -1.114767e-13 2.148150e-03
-4.615324e-02 -1.010100e-13 6.022602e-04
-4.962398e-02 -1.135938e-13 -9.580628e-04
-5.098344e-02 -4.748776e-14 -2.567477e-03
-5.043200e-02 7.302043e-16 -4.047181e-03
-4.832082e-02 -1.380959e-14 -5.468165e-03
-4.474295e-02 -1.201086e-14 -6.768732e-03
-3.993085e-02 -8.966014e-14 -7.870033e-03
-3.420368e-02 -1.157337e-13 -8.682118e-03
-2.813368e-02 -2.277594e-13 -9.114899e-03
-2.218752e-02 -1.241634e-13 -9.247117e-03
-1.673035e-02 -1.149026e-13 -9.142378e-03
-1.186209e-02 4.387794e-15 -8.892030e-03
-7.499440e-03 5.073619e-14 -8.538920e-03
-3.601363e-03 7.578120e-14 -8.131607e-03
-4.772244e-05 4.058222e-14 -7.682139e-03
3.134313e-03 1.424449e-13 -7.180882e-03
6.030213e-03 4.089828e-14 -6.647996e-03
8.602972e-03 1.691087e-13 -6.114319e-03
1.098097e-02 9.979513e-14 -5.616520e-03
1.316384e-02 2.147001e-13 -5.180060e-03
1.529805e-02 1.254147e-13 -4.808079e-03
1.735265e-02 1.215903e-13 -4.524741e-03
1.948632e-02 4.516907e-14 -4.327546e-03
2.170032e-02 -1.859843e-13 -4.218338e-03
2.419308e-02 -3.765262e-13 -4.147838e-03
2.682152e-02 -5.460433e-13 -4.008739e-03
2.953305e-02 -4.403542e-13 -3.763081e-03
3.194883e-02 -3.463426e-13 -3.304792e-03
3.400448e-02 1.098051e-14 -2.599956e-03
3.522102e-02 -1.433263e-14 -1.792560e-03
3.551859e-02 1.610606e-13 3.981478e-05
3.433674e-02 -3.591859e-14 8.911563e-04
3.164087e-02 8.220928e-14 5.799563e-03
2.582405e-02 -7.320377e-14 7.319559e-03
1.705379e-02 2.740881e-14 2.205901e-02
0.000000e+00 -2.916515e-13 4.091063e-02
0.000000e+00 8.032329e-14 -4.808426e-04
-1.264688e-02 8.574970e-14 1.761892e-03
-2.305034e-02 1.242230e-13 3.513870e-03
-3.255338e-02 1.959376e-13 3.016049e-03
-4.031428e-02 2.030093e-13 2.148150e-03
-4.615324e-02 2.447222e-13 6.022602e-04
-4.962398e-02 1.740466e-13 -9.580628e-04
-5.098344e-02 1.074813e-13 -2.567477e-03
-5.043200e-02 5.777256e-14 -4.047181e-03
-4.832082e-02 1.516246e-14 -5.468165e-03
-4.474295e-02 -2.824975e-15 -6.768732e-03
-3.993085e-02 -4.901309e-14 -7.870033e-03
-3.420368e-02 -3.178413e-14 -8.682118e-03
-2.813368e-02 -4.006209e-14 -9.114899e-03
-2.218752e-02 6.002398e-14 -9.247117e-03
-1.673035e-02 1.771563e-14 -9.142378e-03
-1.186209e-02 3.584240e-14 -8.892030e-03
-7.499440e-03 1.888386e-14 -8.538920e-03
-3.601363e-03 3.332325e-14 -8.131607e-03
-4.772244e-05 -8.958129e-15 -7.682139e-03
3.134313e-03 8.736825e-14 -7.180882e-03
6.030213e-03 1.202241e-14 -6.647996e-03
8.602972e-03 1.350446e-13 -6.114319e-03
1.098097e-02 4.595385e-14 -5.616520e-03
1.316384e-02 1.575858e-13 -5.180060e-03
1.529805e-02 5.736724e-14 -4.808079e-03
1.735265e-02 4.449519e-14 -4.524741e-03
1.948632e-02 -4.531902e-14 -4.327546e-03
2.170032e-02 -2.103502e-13 -4.218338e-03
2.419308e-02 -3.271998e-13 -4.147838e-03
2.682152e-02 -4.125485e-13 -4.008739e-03
2.953305e-02 -3.549408e-13 -3.763081e-03
3.194883e-02 -3.073177e-13 -3.304792e-03
3.400448e-02 -4.899199e-14 -2.599956e-03
3.522102e-02 -5.196543e-14 -1.792560e-03
3.551859e-02 8.032715e-14 3.981478e-05
3.433674e-02 -4.444262e-14 8.911563e-04
3.164087e-02 4.161908e-14 5.799563e-03
2.582405e-02 -4.053411e-14 7.319559e-03
1.705379e-02 7.951617e-15 2.205901e-02
0.000000e+00 -2.040654e-13 4.091063e-02
0.000000e+00 1.634993e-14 -4.808426e-04
-1.264688e-02 2.289375e-14 1.761892e-03
-2.305034e-02 7.309135e-14 3.513870e-03
-3.255338e-02 1.569222e-13 3.016049e-03
-4.031428e-02 1.940147e-13 2.148150e-03
-4.615324e-02 2.415777e-13 6.022602e-04
-4.962398e-02 1.850798e-13 -9.580628e-04