# vtk DataFile Version 3.0
vtk output
ASCII
DATASET UNSTRUCTURED_GRID
POINTS 11767 float
0.000000e+00 0.000000e+00 0.000000e+00
1.460000e-02 0.000000e+00 0.000000e+00
2.920000e-02 0.000000e+00 0.000000e+00
4.380000e-02 0.000000e+00 0.000000e+00
5.840000e-02 0.000000e+00 0.000000e+00
7.300000e-02 0.000000e+00 0.000000e+00
8.760000e-02 0.000000e+00 0.000000e+00
1.022000e-01 0.000000e+00 0.000000e+00
1.168000e-01 0.000000e+00 0.000000e+00
1.314000e-01 0.000000e+00 0.000000e+00
1.460000e-01 0.000000e+00 0.000000e+00
1.606000e-01 0.000000e+00 0.000000e+00
1.752000e-01 0.000000e+00 0.000000e+00
1.898000e-01 0.000000e+00 0.000000e+00
2.044000e-01 0.000000e+00 0.000000e+00
2.190000e-01 0.000000e+00 0.000000e+00
2.336000e-01 0.000000e+00 0.000000e+00
2.482000e-01 0.000000e+00 0.000000e+00
2.628000e-01 0.000000e+00 0.000000e+00
2.774000e-01 0.000000e+00 0.000000e+00
2.920000e-01 0.000000e+00 0.000000e+00
3.066000e-01 0.000000e+00 0.000000e+00
3.212000e-01 0.000000e+00 0.000000e+00
3.358000e-01 0.000000e+00 0.000000e+00
3.504000e-01 0.000000e+00 0.000000e+00
3.650000e-01 0.000000e+00 0.000000e+00
3.796000e-01 0.000000e+00 0.000000e+00
3.942000e-01 0.000000e+00 0.000000e+00
4.088000e-01 0.000000e+00 0.000000e+00
4.234000e-01 0.000000e+00 0.000000e+00
4.380000e-01 0.000000e+00 0.000000e+00
4.526000e-01 0.000000e+00 0.000000e+00
4.672000e-01 0.000000e+00 0.000000e+00
4.818000e-01 0.000000e+00 0.000000e+00
4.964000e-01 0.000000e+00 0.000000e+00
5.110000e-01 0.000000e+00 0.000000e+00
5.256000e-01 0.000000e+00 0.000000e+00
5.402000e-01 0.000000e+00 0.000000e+00
5.548000e-01 0.000000e+00 0.000000e+00
5.694000e-01 0.000000e+00 0.000000e+00
5.840000e-01 0.000000e+00 0.000000e+00
0.000000e+00 1.460000e-02 0.000000e+00
1.460000e-02 1.460000e-02 0.000000e+00
2.920000e-02 1.460000e-02 0.000000e+00
4.380000e-02 1.460000e-02 0.000000e+00
5.840000e-02 1.460000e-02 0.000000e+00
7.300000e-02 1.460000e-02 0.000000e+00
8.760000e-02 1.460000e-02 0.000000e+00
1.022000e-01 1.460000e-02 0.000000e+00
1.168000e-01 1.460000e-02 0.000000e+00
1.314000e-01 1.460000e-02 0.000000e+00
1.460000e-01 1.460000e-02 0.000000e+00
1.606000e-01 1.460000e-02 0.000000e+00
1.752000e-01 1.460000e-02 0.000000e+00
1.898000e-01 1.460000e-02 0.000000e+00
2.044000e-01 1.460000e-02 0.000000e+00
2.190000e-01 1.460000e-02 0.000000e+00
2.336000e-01 1.460000e-02 0.000000e+00
2.482000e-01 1.460000e-02 0.000000e+00
2.628000e-01 1.460000e-02 0.000000e+00
2.774000e-01 1.460000e-02 0.000000e+00
2.920000e-01 1.460000e-02 0.000000e+00
3.066000e-01 1.460000e-02 0.000000e+00
3.212000e-01 1.460000e-02 0.000000e+00
3.358000e-01 1.460000e-02 0.000000e+00
3.504000e-01 1.460000e-02 0.000000e+00
3.650000e-01 1.460000e-02 0.000000e+00
3.796000e-01 1.460000e-02 0.000000e+00
3.942000e-01 1.460000e-02 0.000000e+00
4.088000e-01 1.460000e-02 0.000000e+00
4.234000e-01 1.460000e-02 0.000000e+00
4.380000e-01 1.460000e-02 0.000000e+00
4.526000e-01 1.460000e-02 0.000000e+00
4.672000e-01 1.460000e-02 0.000000e+00
4.818000e-01 1.460000e-02 0.000000e+00
4.964000e-01 1.460000e-02 0.000000e+00
5.110000e-01 1.460000e-02 0.000000e+00
5.256000e-01 1.460000e-02 0.000000e+00
5.402000e-01 1.460000e-02 0.000000e+00
5.548000e-01 1.460000e-02 0.000000e+00
5.694000e-01 1.460000e-02 0.000000e+00
5.840000e-01 1.460000e-02 0.000000e+00
0.000000e+00 2.920000e-02 0.000000e+00
1.460000e-02 2.920000e-02 0.000000e+00
2.920000e-02 2.920000e-02 0.000000e+00
4.380000e-02 2.920000e-02 0.000000e+00
5.840000e-02 2.920000e-02 0.000000e+00
7.300000e-02 2.920000e-02 0.000000e+00
8.760000e-02 2.920000e-02 0.000000e+00
1.022000e-01 2.920000e-02 0.000000e+00
1.168000e-01 2.920000e-02 0.000000e+00
1.314000e-01 2.920000e-02 0.000000e+00
1.460000e-01 2.920000e-02 0.000000e+00
1.606000e-01 2.920000e-02 0.000000e+00
1.752000e-01 2.920000e-02 0.000000e+00
1.898000e-01 2.920000e-02 0.000000e+00
2.044000e-01 2.920000e-02 0.000000e+00
2.190000e-01 2.920000e-02 0.000000e+00
2.336000e-01 2.920000e-02 0.000000e+00
2.482000e-01 2.920000e-02 0.000000e+00
2.628000e-01 2.920000e-02 0.000000e+00
2.774000e-01 2.920000e-02 0.000000e+00
2.920000e-01 2.920000e-02 0.000000e+00
3.066000e-01 2.920000e-02 0.000000e+00
3.212000e-01 2.920000e-02 0.000000e+00
3.358000e-01 2.920000e-02 0.000000e+00
3.504000e-01 2.920000e-02 0.000000e+00
3.650000e-01 2.920000e-02 0.000000e+00
3.796000e-01 2.920000e-02 0.000000e+00
3.942000e-01 2.920000e-02 0.000000e+00
4.088000e-01 2.920000e-02 0.000000e+00
4.234000e-01 2.920000e-02 0.000000e+00
4.380000e-01 2.920000e-02 0.000000e+00
4.526000e-01 2.920000e-02 0.000000e+00
4.672000e-01 2.920000e-02 0.000000e+00
4.818000e-01 2.920000e-02 0.000000e+00
4.964000e-01 2.920000e-02 0.000000e+00
5.110000e-01 2.920000e-02 0.000000e+00
5.256000e-01 2.920000e-02 0.000000e+00
5.402000e-01 2.920000e-02 0.000000e+00
5.548000e-01 2.920000e-02 0.000000e+00
5.694000e-01 2.920000e-02 0.000000e+00
5.840000e-01 2.920000e-02 0.000000e+00
0.000000e+00 4.380000e-02 0.000000e+00
1.460000e-02 4.380000e-02 0.000000e+00
2.920000e-02 4.380000e-02 0.000000e+00
4.380000e-02 4.380000e-02 0.000000e+00
5.840000e-02 4.380000e-02 0.000000e+00
7.300000e-02 4.380000e-02 0.000000e+00
8.760000e-02 4.380000e-02 0.000000e+00
1.022000e-01 4.380000e-02 0.000000e+00
1.168000e-01 4.380000e-02 0.000000e+00
1.314000e-01 4.380000e-02 0.000000e+00
1.460000e-01 4.380000e-02 0.000000e+00
1.606000e-01 4.380000e-02 0.000000e+00
1.752000e-01 4.380000e-02 0.000000e+00
1.898000e-01 4.380000e-02 0.000000e+00
2.044000e-01 4.380000e-02 0.000000e+00
2.190000e-01 4.380000e-02 0.000000e+00
2.336000e-01 4.380000e-02 0.000000e+00
2.482000e-01 4.380000e-02 0.000000e+00
2.628000e-01 4.380000e-02 0.000000e+00
2.774000e-01 4.380000e-02 0.000000e+00
2.920000e-01 4.380000e-02 0.000000e+00
3.066000e-01 4.380000e-02 0.000000e+00
3.212000e-01 4.380000e-02 0.000000e+00
3.358000e-01 4.380000e-02 0.000000e+00
3.504000e-01 4.380000e-02 0.000000e+00
3.650000e-01 4.380000e-02 0.000000e+00
3.796000e-01 4.380000e-02 0.000000e+00
3.942000e-01 4.380000e-02 0.000000e+00
4.088000e-01 4.380000e-02 0.000000e+00
4.234000e-01 4.380000e-02 0.000000e+00
4.380000e-01 4.380000e-02 0.000000e+00
4.526000e-01 4.380000e-02 0.000000e+00
4.672000e-01 4.380000e-02 0.000000e+00
4.818000e-01 4.380000e-02 0.000000e+00
4.964000e-01 4.380000e-02 0.000000e+00
5.110000e-01 4.380000e-02 0.000000e+00
5.256000e-01 4.380000e-02 0.000000e+00
5.402000e-01 4.380000e-02 0.000000e+00
5.548000e-01 4.380000e-02 0.000000e+00
5.694000e-01 4.380000e-02 0.000000e+00
5.840000e-01 4.380000e-02 0.000000e+00
0.000000e+00 5.840000e-02 0.000000e+00
1.460000e-02 5.840000e-02 0.000000e+00
2.920000e-02 5.840000e-02 0.000000e+00
4.380000e-02 5.840000e-02 0.000000e+00
5.840000e-02 5.840000e-02 0.000000e+00
7.300000e-02 5.840000e-02 0.000000e+00
8.760000e-02 5.840000e-02 0.000000e+00
1.022000e-01 5.840000e-02 0.000000e+00
1.168000e-01 5.840000e-02 0.000000e+00
1.314000e-01 5.840000e-02 0.000000e+00
1.460000e-01 5.840000e-02 0.000000e+00
1.606000e-01 5.840000e-02 0.000000e+00
1.752000e-01 5.840000e-02 0.000000e+00
1.898000e-01 5.840000e-02 0.000000e+00
2.044000e-01 5.840000e-02 0.000000e+00
2.190000e-01 5.840000e-02 0.000000e+00
2.336000e-01 5.840000e-02 0.000000e+00
2.482000e-01 5.840000e-02 0.000000e+00
2.628000e-01 5.840000e-02 0.000000e+00
2.774000e-01 5.840000e-02 0.000000e+00
2.920000e-01 5.840000e-02 0.000000e+00
3.066000e-01 5.840000e-02 0.000000e+00
3.212000e-01 5.840000e-02 0.000000e+00
3.358000e-01 5.840000e-02 0.000000e+00
3.504000e-01 5.840000e-02 0.000000e+00
3.650000e-01 5.840000e-02 0.000000e+00
3.796000e-01 5.840000e-02 0.000000e+00
3.942000e-01 5.840000e-02 0.000000e+00
4.088000e-01 5.840000e-02 0.000000e+00
4.234000e-01 5.840000e-02 0.000000e+00
4.380000e-01 5.840000e-02 0.000000e+00
4.526000e-01 5.840000e-02 0.000000e+00
4.672000e-01 5.840000e-02 0.000000e+00
4.818000e-01 5.840000e-02 0.000000e+00
4.964000e-01 5.840000e-02 0.000000e+00
5.110000e-01 5.840000e-02 0.000000e+00
5.256000e-01 5.840000e-02 0.000000e+00
5.402000e-01 5.840000e-02 0.000000e+00
5.548000e-01 5.840000e-02 0.000000e+00
5.694000e-01 5.840000e-02 0.000000e+00
5.840000e-01 5.840000e-02 0.000000e+00
0.000000e+00 7.300000e-02 0.000000e+00
1.460000e-02 7.300000e-02 0.000000e+00
2.920000e-02 7.300000e-02 0.000000e+00
4.380000e-02 7.300000e-02 0.000000e+00
5.840000e-02 7.300000e-02 0.000000e+00
7.300000e-02 7.300000e-02 0.000000e+00
8.760000e-02 7.300000e-02 0.000000e+00
1.022000e-01 7.300000e-02 0.000000e+00
1.168000e-01 7.300000e-02 0.000000e+00
1.314000e-01 7.300000e-02 0.000000e+00
1.460000e-01 7.300000e-02 0.000000e+00
1.606000e-01 7.300000e-02 0.000000e+00
1.752000e-01 7.300000e-02 0.000000e+00
1.898000e-01 7.300000e-02 0.000000e+00
2.044000e-01 7.300000e-02 0.000000e+00
2.190000e-01 7.300000e-02 0.000000e+00
2.336000e-01 7.300000e-02 0.000000e+00
2.482000e-01 7.300000e-02 0.000000e+00
2.628000e-01 7.300000e-02 0.000000e+00
2.774000e-01 7.300000e-02 0.000000e+00
2.920000e-01 7.300000e-02 0.000000e+00
3.066000e-01 7.300000e-02 0.000000e+00
3.212000e-01 7.300000e-02 0.000000e+00
3.358000e-01 7.300000e-02 0.000000e+00
3.504000e-01 7.300000e-02 0.000000e+00
3.650000e-01 7.300000e-02 0.000000e+00
3.796000e-01 7.300000e-02 0.000000e+00
3.942000e-01 7.300000e-02 0.000000e+00
4.088000e-01 7.300000e-02 0.000000e+00
4.234000e-01 7.300000e-02 0.000000e+00
4.380000e-01 7.300000e-02 0.000000e+00
4.526000e-01 7.300000e-02 0.000000e+00
4.672000e-01 7.300000e-02 0.000000e+00
4.818000e-01 7.300000e-02 0.000000e+00
4.964000e-01 7.300000e-02 0.000000e+00
5.110000e-01 7.300000e-02 0.000000e+00
5.256000e-01 7.300000e-02 0.000000e+00
5.402000e-01 7.300000e-02 0.000000e+00
5.548000e-01 7.300000e-02 0.000000e+00
5.694000e-01 7.300000e-02 0.000000e+00
5.840000e-01 7.300000e-02 0.000000e+00
0.000000e+00 8.760000e-02 0.000000e+00
1.460000e-02 8.760000e-02 0.000000e+00
2.920000e-02 8.760000e-02 0.000000e+00
4.380000e-02 8.760000e-02 0.000000e+00
5.840000e-02 8.760000e-02 0.000000e+00
7.300000e-02 8.760000e-02 0.000000e+00
8.760000e-02 8.760000e-02 0.000000e+00
1.022000e-01 8.760000e-02 0.000000e+00
[...]
POINT_DATA 11767
VECTORS Velocity float
0.000000e+00 0.000000e+00 0.000000e+00
1.671936e-03 0.000000e+00 0.000000e+00
-3.743717e-03 0.000000e+00 0.000000e+00
-9.484157e-03 0.000000e+00 0.000000e+00
-1.514672e-02 0.000000e+00 0.000000e+00
-1.876742e-02 0.000000e+00 0.000000e+00
-2.005218e-02 0.000000e+00 0.000000e+00
-1.826323e-02 0.000000e+00 0.000000e+00
-1.350646e-02 0.000000e+00 0.000000e+00
-5.697396e-03 0.000000e+00 0.000000e+00
4.855197e-03 0.000000e+00 0.000000e+00
1.823181e-02 0.000000e+00 0.000000e+00
3.332291e-02 0.000000e+00 0.000000e+00
4.951901e-02 0.000000e+00 0.000000e+00
6.559484e-02 0.000000e+00 0.000000e+00
8.078290e-02 0.000000e+00 0.000000e+00
9.464709e-02 0.000000e+00 0.000000e+00
1.069214e-01 0.000000e+00 0.000000e+00
1.175795e-01 0.000000e+00 0.000000e+00
1.267796e-01 0.000000e+00 0.000000e+00
1.345219e-01 0.000000e+00 0.000000e+00
1.407470e-01 0.000000e+00 0.000000e+00
1.454717e-01 0.000000e+00 0.000000e+00
1.488786e-01 0.000000e+00 0.000000e+00
1.512842e-01 0.000000e+00 0.000000e+00
1.530118e-01 0.000000e+00 0.000000e+00
1.541865e-01 0.000000e+00 0.000000e+00
1.548612e-01 0.000000e+00 0.000000e+00
1.550481e-01 0.000000e+00 0.000000e+00
1.547308e-01 0.000000e+00 0.000000e+00
1.538949e-01 0.000000e+00 0.000000e+00
1.522925e-01 0.000000e+00 0.000000e+00
1.496491e-01 0.000000e+00 0.000000e+00
1.453805e-01 0.000000e+00 0.000000e+00
1.387656e-01 0.000000e+00 0.000000e+00
1.293888e-01 0.000000e+00 0.000000e+00
1.156632e-01 0.000000e+00 0.000000e+00
9.936716e-02 0.000000e+00 0.000000e+00
7.553486e-02 0.000000e+00 0.000000e+00
5.092294e-02 0.000000e+00 0.000000e+00
0.000000e+00 0.000000e+00 0.000000e+00
0.000000e+00 -5.642237e-14 0.000000e+00
1.671936e-03 2.326045e-14 0.000000e+00
-3.743717e-03 1.245154e-16 0.000000e+00
-9.484157e-03 7.072973e-15 0.000000e+00
-1.514672e-02 -4.630099e-15 0.000000e+00
-1.876742e-02 5.366678e-15 0.000000e+00
-2.005218e-02 -9.361585e-15 0.000000e+00
-1.826323e-02 1.679073e-14 0.000000e+00
-1.350646e-02 4.728925e-15 0.000000e+00
-5.697396e-03 3.551887e-15 0.000000e+00
4.855197e-03 9.328643e-15 0.000000e+00
1.823181e-02 -2.355285e-14 0.000000e+00
3.332291e-02 2.875564e-14 0.000000e+00
4.951901e-02 -2.363754e-14 0.000000e+00
6.559484e-02 -1.496472e-14 0.000000e+00
8.078290e-02 3.485709e-16 0.000000e+00
9.464709e-02 -1.671829e-14 0.000000e+00
1.069214e-01 -2.176218e-15 0.000000e+00
1.175795e-01 -1.439018e-14 0.000000e+00
1.267796e-01 -2.343620e-14 0.000000e+00
1.345219e-01 -2.261692e-14 0.000000e+00
1.407470e-01 -2.442824e-14 0.000000e+00
1.454717e-01 -1.454178e-14 0.000000e+00
1.488786e-01 -1.018609e-14 0.000000e+00
1.512842e-01 -1.477020e-14 0.000000e+00
1.530118e-01 1.099585e-14 0.000000e+00
1.541865e-01 -2.742088e-14 0.000000e+00
1.548612e-01 8.562994e-15 0.000000e+00
1.550481e-01 -2.493543e-14 0.000000e+00
1.547308e-01 1.206240e-14 0.000000e+00
1.538949e-01 -2.102820e-14 0.000000e+00
1.522925e-01 1.657789e-14 0.000000e+00
1.496491e-01 -3.193561e-14 0.000000e+00
1.453805e-01 3.043028e-14 0.000000e+00
1.387656e-01 -7.183941e-15 0.000000e+00
1.293888e-01 2.668687e-14 0.000000e+00
1.156632e-01 -2.701878e-14 0.000000e+00
9.936716e-02 2.837315e-14 0.000000e+00
7.553486e-02 -4.336251e-14 0.000000e+00
5.092294e-02 4.126523e-14 0.000000e+00
0.000000e+00 6.306557e-14 0.000000e+00
0.000000e+00 -1.195026e-13 0.000000e+00
1.671936e-03 3.054787e-14 0.000000e+00
-3.743717e-03 6.681079e-15 0.000000e+00
-9.484157e-03 -1.538694e-14 0.000000e+00
-1.514672e-02 -1.141789e-15 0.000000e+00
-1.876742e-02 -3.675929e-15 0.000000e+00
-2.005218e-02 4.719856e-16 0.000000e+00
-1.826323e-02 3.379730e-15 0.000000e+00
-1.350646e-02 2.215245e-14 0.000000e+00
-5.697396e-03 -2.928003e-15 0.000000e+00
4.855197e-03 1.165594e-14 0.000000e+00
1.823181e-02 -1.937937e-14 0.000000e+00
3.332291e-02 4.222182e-14 0.000000e+00
4.951901e-02 -1.323335e-14 0.000000e+00
6.559484e-02 -1.685860e-14 0.000000e+00
8.078290e-02 2.459042e-14 0.000000e+00
9.464709e-02 -1.476446e-14 0.000000e+00
1.069214e-01 -4.343525e-15 0.000000e+00
1.175795e-01 -1.312249e-14 0.000000e+00
1.267796e-01 -3.139259e-14 0.000000e+00
1.345219e-01 -2.144231e-14 0.000000e+00
1.407470e-01 -2.987420e-14 0.000000e+00
1.454717e-01 -2.113103e-14 0.000000e+00
1.488786e-01 -1.219415e-14 0.000000e+00
1.512842e-01 -1.949943e-14 0.000000e+00
1.530118e-01 6.343282e-15 0.000000e+00
1.541865e-01 -2.629924e-14 0.000000e+00
1.548612e-01 1.142157e-14 0.000000e+00
1.550481e-01 -2.192580e-14 0.000000e+00
1.547308e-01 1.395267e-14 0.000000e+00
1.538949e-01 -1.973023e-14 0.000000e+00
1.522925e-01 1.568091e-14 0.000000e+00
1.496491e-01 -2.629837e-14 0.000000e+00
1.453805e-01 1.991440e-14 0.000000e+00
1.387656e-01 9.768864e-15 0.000000e+00
1.293888e-01 2.900249e-15 0.000000e+00
1.156632e-01 -5.235581e-15 0.000000e+00
9.936716e-02 1.664974e-15 0.000000e+00
7.553486e-02 -5.518236e-15 0.000000e+00
5.092294e-02 1.291853e-14 0.000000e+00
0.000000e+00 2.250413e-14 0.000000e+00
0.000000e+00 -8.317799e-14 0.000000e+00
1.671936e-03 3.377233e-14 0.000000e+00
-3.743717e-03 1.638572e-14 0.000000e+00
-9.484157e-03 -1.344352e-14 0.000000e+00
-1.514672e-02 -3.456309e-15 0.000000e+00
-1.876742e-02 2.663421e-15 0.000000e+00
-2.005218e-02 -2.490410e-15 0.000000e+00
-1.826323e-02 3.955549e-15 0.000000e+00
-1.350646e-02 1.425253e-14 0.000000e+00
-5.697396e-03 -9.519400e-17 0.000000e+00
4.855197e-03 1.034102e-14 0.000000e+00
1.823181e-02 -1.182244e-14 0.000000e+00
3.332291e-02 4.968280e-14 0.000000e+00
4.951901e-02 -2.026315e-15 0.000000e+00
6.559484e-02 -1.046819e-14 0.000000e+00
8.078290e-02 2.611367e-14 0.000000e+00
9.464709e-02 -7.678655e-15 0.000000e+00
1.069214e-01 2.610770e-15 0.000000e+00
1.175795e-01 -6.779252e-15 0.000000e+00
1.267796e-01 -2.044873e-14 0.000000e+00
1.345219e-01 -8.485886e-15 0.000000e+00
1.407470e-01 -2.142971e-14 0.000000e+00
1.454717e-01 -1.824515e-14 0.000000e+00
1.488786e-01 -6.383739e-15 0.000000e+00
1.512842e-01 -1.858598e-14 0.000000e+00
1.530118e-01 1.393245e-14 0.000000e+00
1.541865e-01 -2.908241e-14 0.000000e+00
1.548612e-01 2.990345e-14 0.000000e+00
1.550481e-01 -2.247613e-14 0.000000e+00
1.547308e-01 2.365585e-14 0.000000e+00
1.538949e-01 -1.888223e-14 0.000000e+00
1.522925e-01 1.652402e-14 0.000000e+00
1.496491e-01 -2.500415e-14 0.000000e+00
1.453805e-01 3.396831e-14 0.000000e+00
1.387656e-01 1.521635e-14 0.000000e+00
1.293888e-01 2.267619e-14 0.000000e+00
1.156632e-01 -1.444735e-14 0.000000e+00
9.936716e-02 1.432007e-14 0.000000e+00
7.553486e-02 -1.813490e-14 0.000000e+00
5.092294e-02 4.583170e-14 0.000000e+00
0.000000e+00 -4.461781e-15 0.000000e+00
0.000000e+00 -9.235782e-14 0.000000e+00
1.671936e-03 1.802375e-14 0.000000e+00
-3.743717e-03 1.081998e-14 0.000000e+00
-9.484157e-03 -3.842005e-14 0.000000e+00
-1.514672e-02 -3.363107e-15 0.000000e+00
-1.876742e-02 -1.015065e-14 0.000000e+00
-2.005218e-02 5.464617e-15 0.000000e+00
-1.826323e-02 -1.621785e-15 0.000000e+00
-1.350646e-02 1.667232e-14 0.000000e+00
-5.697396e-03 1.081222e-15 0.000000e+00
4.855197e-03 2.020172e-14 0.000000e+00
1.823181e-02 -2.004460e-14 0.000000e+00
3.332291e-02 5.746203e-14 0.000000e+00
4.951901e-02 -1.291332e-14 0.000000e+00
6.559484e-02 -9.521754e-15 0.000000e+00
8.078290e-02 1.737977e-14 0.000000e+00
9.464709e-02 -8.498719e-15 0.000000e+00
1.069214e-01 2.525538e-15 0.000000e+00
1.175795e-01 -1.561561e-15 0.000000e+00
1.267796e-01 -2.564763e-14 0.000000e+00
1.345219e-01 -4.786264e-15 0.000000e+00
1.407470e-01 -1.880171e-14 0.000000e+00
1.454717e-01 -1.856353e-14 0.000000e+00
1.488786e-01 -2.881666e-15 0.000000e+00
1.512842e-01 -1.947241e-14 0.000000e+00
1.530118e-01 1.570680e-14 0.000000e+00
1.541865e-01 -2.677267e-14 0.000000e+00
1.548612e-01 2.355300e-14 0.000000e+00
1.550481e-01 -1.716175e-14 0.000000e+00
1.547308e-01 1.618997e-14 0.000000e+00
1.538949e-01 -1.708923e-14 0.000000e+00
1.522925e-01 1.533166e-14 0.000000e+00
1.496491e-01 -2.457269e-14 0.000000e+00
1.453805e-01 3.055797e-14 0.000000e+00
1.387656e-01 1.409956e-14 0.000000e+00
1.293888e-01 4.993579e-15 0.000000e+00
1.156632e-01 -6.055008e-16 0.000000e+00
9.936716e-02 -9.837631e-15 0.000000e+00
7.553486e-02 9.195329e-15 0.000000e+00
5.092294e-02 7.756113e-15 0.000000e+00
0.000000e+00 -2.415799e-14 0.000000e+00
0.000000e+00 -9.836855e-14 0.000000e+00
1.671936e-03 -3.812365e-14 0.000000e+00
-3.743717e-03 -1.653838e-14 0.000000e+00
-9.484157e-03 -2.289404e-14 0.000000e+00
-1.514672e-02 -9.107000e-15 0.000000e+00
-1.876742e-02 -8.172410e-15 0.000000e+00
-2.005218e-02 -1.120131e-14 0.000000e+00
-1.826323e-02 1.027147e-14 0.000000e+00
-1.350646e-02 3.516110e-15 0.000000e+00
-5.697396e-03 3.085684e-15 0.000000e+00
4.855197e-03 -1.919489e-15 0.000000e+00
1.823181e-02 -1.282119e-14 0.000000e+00
3.332291e-02 2.284387e-14 0.000000e+00
4.951901e-02 -1.790878e-14 0.000000e+00
6.559484e-02 -2.049925e-14 0.000000e+00
8.078290e-02 7.533989e-15 0.000000e+00
9.464709e-02 -1.080815e-14 0.000000e+00
1.069214e-01 -5.900480e-16 0.000000e+00
1.175795e-01 -7.287074e-15 0.000000e+00
1.267796e-01 -2.043252e-14 0.000000e+00
1.345219e-01 -1.195341e-14 0.000000e+00
1.407470e-01 -1.095420e-14 0.000000e+00
1.454717e-01 -2.254139e-14 0.000000e+00
1.488786e-01 -1.357627e-15 0.000000e+00
1.512842e-01 -2.011178e-14 0.000000e+00
1.530118e-01 9.600841e-15 0.000000e+00
1.541865e-01 -2.716723e-14 0.000000e+00
1.548612e-01 8.854442e-15 0.000000e+00
1.550481e-01 -2.086809e-14 0.000000e+00
1.547308e-01 3.530387e-15 0.000000e+00
1.538949e-01 -2.355804e-14 0.000000e+00
1.522925e-01 5.348738e-15 0.000000e+00
1.496491e-01 -3.292202e-14 0.000000e+00
1.453805e-01 3.364486e-14 0.000000e+00
1.387656e-01 -2.039607e-14 0.000000e+00
1.293888e-01 2.828199e-14 0.000000e+00
1.156632e-01 -3.688674e-14 0.000000e+00
9.936716e-02 3.350700e-14 0.000000e+00
7.553486e-02 -4.563759e-14 0.000000e+00
5.092294e-02 5.631985e-14 0.000000e+00
0.000000e+00 6.537986e-14 0.000000e+00
0.000000e+00 0.000000e+00 0.000000e+00
1.671936e-03 0.000000e+00 0.000000e+00
-3.743717e-03 0.000000e+00 0.000000e+00
-9.484157e-03 0.000000e+00 0.000000e+00
-1.514672e-02 0.000000e+00 0.000000e+00
-1.876742e-02 0.000000e+00 0.000000e+00
-2.005218e-02 0.000000e+00 0.000000e+00
-1.826323e-02 0.000000e+00 0.000000e+00
-1.350646e-02 0.000000e+00 0.000000e+00
-5.697396e-03 0.000000e+00 0.000000e+00
4.855197e-03 0.000000e+00 0.000000e+00
1.823181e-02 0.000000e+00 0.000000e+00
3.332291e-02 0.000000e+00 0.000000e+00
4.951901e-02 0.000000e+00 0.000000e+00
6.559484e-02 0.000000e+00 0.000000e+00
8.078290e-02 0.000000e+00 0.000000e+00
9.464709e-02 0.000000e+00 0.000000e+00
1.069214e-01 0.000000e+00 0.000000e+00
1.175795e-01 0.000000e+00 0.000000e+00
1.267796e-01 0.000000e+00 0.000000e+00
1.345219e-01 0.000000e+00 0.000000e+00
1.407470e-01 0.000000e+00 0.000000e+00
1.454717e-01 0.000000e+00 0.000000e+00
1.488786e-01 0.000000e+00 0.000000e+00
1.512842e-01 0.000000e+00 0.000000e+00
1.530118e-01 0.000000e+00 0.000000e+00
1.541865e-01 0.000000e+00 0.000000e+00
1.548612e-01 0.000000e+00 0.000000e+00
1.550481e-01 0.000000e+00 0.000000e+00
1.547308e-01 0.000000e+00 0.000000e+00
1.538949e-01 0.000000e+00 0.000000e+00
1.522925e-01 0.000000e+00 0.000000e+00
1.496491e-01 0.000000e+00 0.000000e+00
1.453805e-01 0.000000e+00 0.000000e+00
1.387656e-01 0.000000e+00 0.000000e+00
1.293888e-01 0.000000e+00 0.000000e+00
1.156632e-01 0.000000e+00 0.000000e+00
9.936716e-02 0.000000e+00 0.000000e+00
7.553486e-02 0.000000e+00 0.000000e+00
5.092294e-02 0.000000e+00 0.000000e+00
0.000000e+00 0.000000e+00 0.000000e+00
0.000000e+00 0.000000e+00 1.459757e-03
-1.788987e-02 0.000000e+00 4.407300e-03
-3.229825e-02 0.000000e+00 6.274553e-03
-4.456531e-02 0.000000e+00 5.048469e-03
-5.389336e-02 0.000000e+00 3.491864e-03
-6.032571e-02 0.000000e+00 8.413101e-04
-6.336346e-02 0.000000e+00 -2.076184e-03
-6.317839e-02 0.000000e+00 -5.223948e-03
-5.978099e-02 0.000000e+00 -8.260687e-03
-5.350107e-02 0.000000e+00 -1.111846e-02
-4.450028e-02 0.000000e+00 -1.386559e-02
-3.324511e-02 0.000000e+00 -1.614155e-02
-1.995180e-02 0.000000e+00 -1.767943e-02
-5.143061e-03 0.000000e+00 -1.847527e-02
1.079162e-02 0.000000e+00 -1.838226e-02
2.731471e-02 0.000000e+00 -1.766741e-02
4.340774e-02 0.000000e+00 -1.635315e-02
5.798551e-02 0.000000e+00 -1.455195e-02
6.992714e-02 0.000000e+00 -1.251355e-02
7.864670e-02 0.000000e+00 -1.048707e-02
8.436691e-02 0.000000e+00 -8.618017e-03
8.791068e-02 0.000000e+00 -7.034054e-03
9.019951e-02 0.000000e+00 -5.794680e-03
9.193386e-02 0.000000e+00 -4.887451e-03
9.340437e-02 0.000000e+00 -4.275524e-03
9.474729e-02 0.000000e+00 -3.845885e-03
9.601085e-02 0.000000e+00 -3.474853e-03
9.723205e-02 0.000000e+00 -3.132244e-03
9.836458e-02 0.000000e+00 -2.747790e-03
9.931303e-02 0.000000e+00 -2.355754e-03
1.000222e-01 0.000000e+00 -1.829517e-03
1.003016e-01 0.000000e+00 -1.080344e-03
9.996719e-02 0.000000e+00 5.734335e-05
9.834136e-02 0.000000e+00 1.986817e-03
9.486791e-02 0.000000e+00 4.202699e-03
8.885081e-02 0.000000e+00 7.998255e-03
7.951094e-02 0.000000e+00 1.066324e-02
6.696183e-02 0.000000e+00 1.657679e-02
4.955252e-02 0.000000e+00 1.848249e-02
2.840163e-02 0.000000e+00 3.025461e-02
0.000000e+00 0.000000e+00 4.631622e-02
0.000000e+00 1.347687e-14 1.459757e-03
-1.788987e-02 -1.109956e-14 4.407300e-03
-3.229825e-02 -1.582480e-14 6.274553e-03
-4.456531e-02 5.578675e-15 5.048469e-03
-5.389336e-02 -1.234709e-14 3.491864e-03
-6.032571e-02 -2.586824e-16 8.413101e-04
-6.336346e-02 -1.195193e-14 -2.076184e-03
-6.317839e-02 -6.041435e-15 -5.223948e-03
-5.978099e-02 -1.060411e-14 -8.260687e-03
-5.350107e-02 -5.411365e-15 -1.111846e-02
-4.450028e-02 4.960826e-15 -1.386559e-02
-3.324511e-02 -7.957559e-16 -1.614155e-02
-1.995180e-02 1.861916e-14 -1.767943e-02
-5.143061e-03 1.792249e-15 -1.847527e-02
1.079162e-02 3.060529e-14 -1.838226e-02
2.731471e-02 2.008105e-14 -1.766741e-02
4.340774e-02 1.177560e-14 -1.635315e-02
5.798551e-02 8.143900e-15 -1.455195e-02
6.992714e-02 2.134034e-14 -1.251355e-02
7.864670e-02 1.631838e-14 -1.048707e-02
8.436691e-02 3.287625e-14 -8.618017e-03
8.791068e-02 2.445688e-14 -7.034054e-03
9.019951e-02 3.345278e-14 -5.794680e-03
9.193386e-02 1.026670e-14 -4.887451e-03
9.340437e-02 8.213169e-15 -4.275524e-03
9.474729e-02 1.579231e-14 -3.845885e-03
9.601085e-02 9.791366e-15 -3.474853e-03
9.723205e-02 1.827439e-14 -3.132244e-03
9.836458e-02 9.180217e-15 -2.747790e-03
9.931303e-02 1.203437e-14 -2.355754e-03
1.000222e-01 -1.084002e-14 -1.829517e-03
1.003016e-01 8.488362e-15 -1.080344e-03
9.996719e-02 -1.933379e-14 5.734335e-05
9.834136e-02 3.248393e-16 1.986817e-03
9.486791e-02 -2.487243e-14 4.202699e-03
8.885081e-02 1.079899e-14 7.998255e-03
7.951094e-02 -2.923627e-14 1.066324e-02
6.696183e-02 2.859109e-14 1.657679e-02
4.955252e-02 -5.427745e-14 1.848249e-02
2.840163e-02 4.103483e-14 3.025461e-02
0.000000e+00 -8.533297e-15 4.631622e-02
0.000000e+00 4.399212e-15 1.459757e-03
-1.788987e-02 -3.407148e-14 4.407300e-03
-3.229825e-02 -2.451981e-14 6.274553e-03
-4.456531e-02 2.991587e-15 5.048469e-03
-5.389336e-02 -2.651484e-14 3.491864e-03
-6.032571e-02 1.688415e-16 8.413101e-04
-6.336346e-02 -8.886146e-15 -2.076184e-03
-6.317839e-02 -4.598764e-15 -5.223948e-03
-5.978099e-02 -7.934889e-15 -8.260687e-03
-5.350107e-02 6.905548e-16 -1.111846e-02
-4.450028e-02 1.825493e-14 -1.386559e-02
-3.324511e-02 -6.830267e-15 -1.614155e-02
-1.995180e-02 3.870587e-14 -1.767943e-02
-5.143061e-03 3.201341e-15 -1.847527e-02
1.079162e-02 5.033388e-14 -1.838226e-02
2.731471e-02 1.920496e-14 -1.766741e-02
4.340774e-02 3.221679e-14 -1.635315e-02
5.798551e-02 5.210169e-15 -1.455195e-02
6.992714e-02 4.304436e-14 -1.251355e-02
7.864670e-02 1.399784e-14 -1.048707e-02
8.436691e-02 4.327579e-14 -8.618017e-03
8.791068e-02 2.151271e-14 -7.034054e-03
9.019951e-02 4.648043e-14 -5.794680e-03
9.193386e-02 7.775580e-15 -4.887451e-03
9.340437e-02 1.999600e-14 -4.275524e-03
9.474729e-02 2.362849e-14 -3.845885e-03
9.601085e-02 1.824262e-14 -3.474853e-03
9.723205e-02 2.754212e-14 -3.132244e-03
9.836458e-02 5.544933e-15 -2.747790e-03
9.931303e-02 1.833966e-14 -2.355754e-03
1.000222e-01 -1.054029e-14 -1.829517e-03
1.003016e-01 5.474655e-15 -1.080344e-03
9.996719e-02 -1.171157e-14 5.734335e-05
9.834136e-02 -1.799331e-14 1.986817e-03
9.486791e-02 -1.669703e-14 4.202699e-03
8.885081e-02 -1.802604e-15 7.998255e-03
7.951094e-02 -1.102101e-14 1.066324e-02
6.696183e-02 6.298351e-15 1.657679e-02
4.955252e-02 -4.044113e-14 1.848249e-02
2.840163e-02 2.256299e-14 3.025461e-02
0.000000e+00 8.140222e-15 4.631622e-02
0.000000e+00 1.408083e-14 1.459757e-03
-1.788987e-02 -2.852846e-14 4.407300e-03
-3.229825e-02 -2.667880e-14 6.274553e-03
-4.456531e-02 -3.495306e-15 5.048469e-03
-5.389336e-02 -2.152360e-14 3.491864e-03
-6.032571e-02 -4.773659e-15 8.413101e-04
-6.336346e-02 -8.601255e-15 -2.076184e-03
-6.317839e-02 4.865738e-15 -5.223948e-03
-5.978099e-02 -2.052525e-15 -8.260687e-03
-5.350107e-02 -4.032967e-16 -1.111846e-02
-4.450028e-02 2.639295e-14 -1.386559e-02
-3.324511e-02 3.700688e-15 -1.614155e-02
-1.995180e-02 4.013634e-14 -1.767943e-02
-5.143061e-03 -5.195302e-15 -1.847527e-02
1.079162e-02 5.399985e-14 -1.838226e-02
2.731471e-02 2.870961e-14 -1.766741e-02
4.340774e-02 2.921313e-14 -1.635315e-02
5.798551e-02 2.099466e-14 -1.455195e-02
6.992714e-02 2.976274e-14 -1.251355e-02
7.864670e-02 2.058248e-14 -1.048707e-02
8.436691e-02 3.420228e-14 -8.618017e-03
8.791068e-02 1.975131e-14 -7.034054e-03
9.019951e-02 4.042496e-14 -5.794680e-03
9.193386e-02 1.462744e-14 -4.887451e-03
9.340437e-02 1.767748e-14 -4.275524e-03
9.474729e-02 3.266352e-14 -3.845885e-03
9.601085e-02 1.554031e-14 -3.474853e-03
9.723205e-02 3.346320e-14 -3.132244e-03
9.836458e-02 5.281001e-15 -2.747790e-03
9.931303e-02 2.478052e-14 -2.355754e-03
1.000222e-01 -9.096595e-15 -1.829517e-03
1.003016e-01 1.643947e-14 -1.080344e-03
9.996719e-02 -1.747703e-14 5.734335e-05
9.834136e-02 -7.388186e-15 1.986817e-03
9.486791e-02 -2.296859e-14 4.202699e-03
8.885081e-02 5.362490e-15 7.998255e-03
7.951094e-02 -3.277688e-14 1.066324e-02
6.696183e-02 1.609515e-14 1.657679e-02
4.955252e-02 -7.465242e-14 1.848249e-02
2.840163e-02 4.505081e-14 3.025461e-02
0.000000e+00 6.218644e-16 4.631622e-02
0.000000e+00 6.380043e-15 1.459757e-03
-1.788987e-02 -3.466760e-14 4.407300e-03
-3.229825e-02 -2.587491e-14 6.274553e-03
-4.456531e-02 -5.111132e-15 5.048469e-03
-5.389336e-02 -2.178861e-14 3.491864e-03
-6.032571e-02 1.584739e-16 8.413101e-04
-6.336346e-02 -8.325290e-15 -2.076184e-03
-6.317839e-02 -1.503474e-15 -5.223948e-03
-5.978099e-02 -2.745115e-15 -8.260687e-03
-5.350107e-02 1.047802e-15 -1.111846e-02
-4.450028e-02 1.726735e-14 -1.386559e-02
-3.324511e-02 3.702915e-15 -1.614155e-02
-1.995180e-02 3.073053e-14 -1.767943e-02
-5.143061e-03 -1.192924e-15 -1.847527e-02
1.079162e-02 5.120371e-14 -1.838226e-02
2.731471e-02 1.869481e-14 -1.766741e-02
4.340774e-02 3.226400e-14 -1.635315e-02
5.798551e-02 9.472567e-15 -1.455195e-02
6.992714e-02 2.748507e-14 -1.251355e-02
7.864670e-02 1.808023e-14 -1.048707e-02
8.436691e-02 2.802625e-14 -8.618017e-03
8.791068e-02 1.931641e-14 -7.034054e-03
9.019951e-02 3.887120e-14 -5.794680e-03
9.193386e-02 1.685177e-14 -4.887451e-03
9.340437e-02 1.625152e-14 -4.275524e-03
9.474729e-02 3.590271e-14 -3.845885e-03
9.601085e-02 1.370181e-14 -3.474853e-03
9.723205e-02 3.761642e-14 -3.132244e-03
9.836458e-02 1.668259e-15 -2.747790e-03
9.931303e-02 2.521738e-14 -2.355754e-03
1.000222e-01 -9.188660e-15 -1.829517e-03
1.003016e-01 1.428552e-14 -1.080344e-03
9.996719e-02 -1.543636e-14 5.734335e-05
9.834136e-02 -1.420094e-14 1.986817e-03
9.486791e-02 -1.721459e-14 4.202699e-03
8.885081e-02 2.736809e-15 7.998255e-03
7.951094e-02 -1.473847e-14 1.066324e-02
6.696183e-02 9.170616e-15 1.657679e-02
4.955252e-02 -5.066014e-14 1.848249e-02
2.840163e-02 1.383910e-14 3.025461e-02
0.000000e+00 -1.015088e-14 4.631622e-02
0.000000e+00 -1.862437e-14 1.459757e-03
-1.788987e-02 -4.233659e-14 4.407300e-03
-3.229825e-02 -3.313995e-14 6.274553e-03
-4.456531e-02 -1.460315e-15 5.048469e-03
-5.389336e-02 -2.214051e-14 3.491864e-03
-6.032571e-02 3.657072e-15 8.413101e-04
-6.336346e-02 -9.042319e-15 -2.076184e-03
-6.317839e-02 -6.355737e-15 -5.223948e-03