# vtk DataFile Version 3.0
vtk output
ASCII
DATASET UNSTRUCTURED_GRID
POINTS 11767 float
0.000000e+00 0.000000e+00 0.000000e+00
1.460000e-02 0.000000e+00 0.000000e+00
2.920000e-02 0.000000e+00 0.000000e+00
4.380000e-02 0.000000e+00 0.000000e+00
5.840000e-02 0.000000e+00 0.000000e+00
7.300000e-02 0.000000e+00 0.000000e+00
8.760000e-02 0.000000e+00 0.000000e+00
1.022000e-01 0.000000e+00 0.000000e+00
1.168000e-01 0.000000e+00 0.000000e+00
1.314000e-01 0.000000e+00 0.000000e+00
1.460000e-01 0.000000e+00 0.000000e+00
1.606000e-01 0.000000e+00 0.000000e+00
1.752000e-01 0.000000e+00 0.000000e+00
1.898000e-01 0.000000e+00 0.000000e+00
2.044000e-01 0.000000e+00 0.000000e+00
2.190000e-01 0.000000e+00 0.000000e+00
2.336000e-01 0.000000e+00 0.000000e+00
2.482000e-01 0.000000e+00 0.000000e+00
2.628000e-01 0.000000e+00 0.000000e+00
2.774000e-01 0.000000e+00 0.000000e+00
2.920000e-01 0.000000e+00 0.000000e+00
3.066000e-01 0.000000e+00 0.000000e+00
3.212000e-01 0.000000e+00 0.000000e+00
3.358000e-01 0.000000e+00 0.000000e+00
3.504000e-01 0.000000e+00 0.000000e+00
3.650000e-01 0.000000e+00 0.000000e+00
3.796000e-01 0.000000e+00 0.000000e+00
3.942000e-01 0.000000e+00 0.000000e+00
4.088000e-01 0.000000e+00 0.000000e+00
4.234000e-01 0.000000e+00 0.000000e+00
4.380000e-01 0.000000e+00 0.000000e+00
4.526000e-01 0.000000e+00 0.000000e+00
4.672000e-01 0.000000e+00 0.000000e+00
4.818000e-01 0.000000e+00 0.000000e+00
4.964000e-01 0.000000e+00 0.000000e+00
5.110000e-01 0.000000e+00 0.000000e+00
5.256000e-01 0.000000e+00 0.000000e+00
5.402000e-01 0.000000e+00 0.000000e+00
5.548000e-01 0.000000e+00 0.000000e+00
5.694000e-01 0.000000e+00 0.000000e+00
5.840000e-01 0.000000e+00 0.000000e+00
0.000000e+00 1.460000e-02 0.000000e+00
1.460000e-02 1.460000e-02 0.000000e+00
2.920000e-02 1.460000e-02 0.000000e+00
4.380000e-02 1.460000e-02 0.000000e+00
5.840000e-02 1.460000e-02 0.000000e+00
7.300000e-02 1.460000e-02 0.000000e+00
8.760000e-02 1.460000e-02 0.000000e+00
1.022000e-01 1.460000e-02 0.000000e+00
1.168000e-01 1.460000e-02 0.000000e+00
1.314000e-01 1.460000e-02 0.000000e+00
1.460000e-01 1.460000e-02 0.000000e+00
1.606000e-01 1.460000e-02 0.000000e+00
1.752000e-01 1.460000e-02 0.000000e+00
1.898000e-01 1.460000e-02 0.000000e+00
2.044000e-01 1.460000e-02 0.000000e+00
2.190000e-01 1.460000e-02 0.000000e+00
2.336000e-01 1.460000e-02 0.000000e+00
2.482000e-01 1.460000e-02 0.000000e+00
2.628000e-01 1.460000e-02 0.000000e+00
2.774000e-01 1.460000e-02 0.000000e+00
2.920000e-01 1.460000e-02 0.000000e+00
3.066000e-01 1.460000e-02 0.000000e+00
3.212000e-01 1.460000e-02 0.000000e+00
3.358000e-01 1.460000e-02 0.000000e+00
3.504000e-01 1.460000e-02 0.000000e+00
3.650000e-01 1.460000e-02 0.000000e+00
3.796000e-01 1.460000e-02 0.000000e+00
3.942000e-01 1.460000e-02 0.000000e+00
4.088000e-01 1.460000e-02 0.000000e+00
4.234000e-01 1.460000e-02 0.000000e+00
4.380000e-01 1.460000e-02 0.000000e+00
4.526000e-01 1.460000e-02 0.000000e+00
4.672000e-01 1.460000e-02 0.000000e+00
4.818000e-01 1.460000e-02 0.000000e+00
4.964000e-01 1.460000e-02 0.000000e+00
5.110000e-01 1.460000e-02 0.000000e+00
5.256000e-01 1.460000e-02 0.000000e+00
5.402000e-01 1.460000e-02 0.000000e+00
5.548000e-01 1.460000e-02 0.000000e+00
5.694000e-01 1.460000e-02 0.000000e+00
5.840000e-01 1.460000e-02 0.000000e+00
0.000000e+00 2.920000e-02 0.000000e+00
1.460000e-02 2.920000e-02 0.000000e+00
2.920000e-02 2.920000e-02 0.000000e+00
4.380000e-02 2.920000e-02 0.000000e+00
5.840000e-02 2.920000e-02 0.000000e+00
7.300000e-02 2.920000e-02 0.000000e+00
8.760000e-02 2.920000e-02 0.000000e+00
1.022000e-01 2.920000e-02 0.000000e+00
1.168000e-01 2.920000e-02 0.000000e+00
1.314000e-01 2.920000e-02 0.000000e+00
1.460000e-01 2.920000e-02 0.000000e+00
1.606000e-01 2.920000e-02 0.000000e+00
1.752000e-01 2.920000e-02 0.000000e+00
1.898000e-01 2.920000e-02 0.000000e+00
2.044000e-01 2.920000e-02 0.000000e+00
2.190000e-01 2.920000e-02 0.000000e+00
2.336000e-01 2.920000e-02 0.000000e+00
2.482000e-01 2.920000e-02 0.000000e+00
2.628000e-01 2.920000e-02 0.000000e+00
2.774000e-01 2.920000e-02 0.000000e+00
2.920000e-01 2.920000e-02 0.000000e+00
3.066000e-01 2.920000e-02 0.000000e+00
3.212000e-01 2.920000e-02 0.000000e+00
3.358000e-01 2.920000e-02 0.000000e+00
3.504000e-01 2.920000e-02 0.000000e+00
3.650000e-01 2.920000e-02 0.000000e+00
3.796000e-01 2.920000e-02 0.000000e+00
3.942000e-01 2.920000e-02 0.000000e+00
4.088000e-01 2.920000e-02 0.000000e+00
4.234000e-01 2.920000e-02 0.000000e+00
4.380000e-01 2.920000e-02 0.000000e+00
4.526000e-01 2.920000e-02 0.000000e+00
4.672000e-01 2.920000e-02 0.000000e+00
4.818000e-01 2.920000e-02 0.000000e+00
4.964000e-01 2.920000e-02 0.000000e+00
5.110000e-01 2.920000e-02 0.000000e+00
5.256000e-01 2.920000e-02 0.000000e+00
5.402000e-01 2.920000e-02 0.000000e+00
5.548000e-01 2.920000e-02 0.000000e+00
5.694000e-01 2.920000e-02 0.000000e+00
5.840000e-01 2.920000e-02 0.000000e+00
0.000000e+00 4.380000e-02 0.000000e+00
1.460000e-02 4.380000e-02 0.000000e+00
2.920000e-02 4.380000e-02 0.000000e+00
4.380000e-02 4.380000e-02 0.000000e+00
5.840000e-02 4.380000e-02 0.000000e+00
7.300000e-02 4.380000e-02 0.000000e+00
8.760000e-02 4.380000e-02 0.000000e+00
1.022000e-01 4.380000e-02 0.000000e+00
1.168000e-01 4.380000e-02 0.000000e+00
1.314000e-01 4.380000e-02 0.000000e+00
1.460000e-01 4.380000e-02 0.000000e+00
1.606000e-01 4.380000e-02 0.000000e+00
1.752000e-01 4.380000e-02 0.000000e+00
1.898000e-01 4.380000e-02 0.000000e+00
2.044000e-01 4.380000e-02 0.000000e+00
2.190000e-01 4.380000e-02 0.000000e+00
2.336000e-01 4.380000e-02 0.000000e+00
2.482000e-01 4.380000e-02 0.000000e+00
2.628000e-01 4.380000e-02 0.000000e+00
2.774000e-01 4.380000e-02 0.000000e+00
2.920000e-01 4.380000e-02 0.000000e+00
3.066000e-01 4.380000e-02 0.000000e+00
3.212000e-01 4.380000e-02 0.000000e+00
3.358000e-01 4.380000e-02 0.000000e+00
3.504000e-01 4.380000e-02 0.000000e+00
3.650000e-01 4.380000e-02 0.000000e+00
3.796000e-01 4.380000e-02 0.000000e+00
3.942000e-01 4.380000e-02 0.000000e+00
4.088000e-01 4.380000e-02 0.000000e+00
4.234000e-01 4.380000e-02 0.000000e+00
4.380000e-01 4.380000e-02 0.000000e+00
4.526000e-01 4.380000e-02 0.000000e+00
4.672000e-01 4.380000e-02 0.000000e+00
4.818000e-01 4.380000e-02 0.000000e+00
4.964000e-01 4.380000e-02 0.000000e+00
5.110000e-01 4.380000e-02 0.000000e+00
5.256000e-01 4.380000e-02 0.000000e+00
5.402000e-01 4.380000e-02 0.000000e+00
5.548000e-01 4.380000e-02 0.000000e+00
5.694000e-01 4.380000e-02 0.000000e+00
5.840000e-01 4.380000e-02 0.000000e+00
0.000000e+00 5.840000e-02 0.000000e+00
1.460000e-02 5.840000e-02 0.000000e+00
2.920000e-02 5.840000e-02 0.000000e+00
4.380000e-02 5.840000e-02 0.000000e+00
5.840000e-02 5.840000e-02 0.000000e+00
7.300000e-02 5.840000e-02 0.000000e+00
8.760000e-02 5.840000e-02 0.000000e+00
1.022000e-01 5.840000e-02 0.000000e+00
1.168000e-01 5.840000e-02 0.000000e+00
1.314000e-01 5.840000e-02 0.000000e+00
1.460000e-01 5.840000e-02 0.000000e+00
1.606000e-01 5.840000e-02 0.000000e+00
1.752000e-01 5.840000e-02 0.000000e+00
1.898000e-01 5.840000e-02 0.000000e+00
2.044000e-01 5.840000e-02 0.000000e+00
2.190000e-01 5.840000e-02 0.000000e+00
2.336000e-01 5.840000e-02 0.000000e+00
2.482000e-01 5.840000e-02 0.000000e+00
2.628000e-01 5.840000e-02 0.000000e+00
2.774000e-01 5.840000e-02 0.000000e+00
2.920000e-01 5.840000e-02 0.000000e+00
3.066000e-01 5.840000e-02 0.000000e+00
3.212000e-01 5.840000e-02 0.000000e+00
3.358000e-01 5.840000e-02 0.000000e+00
3.504000e-01 5.840000e-02 0.000000e+00
3.650000e-01 5.840000e-02 0.000000e+00
3.796000e-01 5.840000e-02 0.000000e+00
3.942000e-01 5.840000e-02 0.000000e+00
4.088000e-01 5.840000e-02 0.000000e+00
4.234000e-01 5.840000e-02 0.000000e+00
4.380000e-01 5.840000e-02 0.000000e+00
4.526000e-01 5.840000e-02 0.000000e+00
4.672000e-01 5.840000e-02 0.000000e+00
4.818000e-01 5.840000e-02 0.000000e+00
4.964000e-01 5.840000e-02 0.000000e+00
5.110000e-01 5.840000e-02 0.000000e+00
5.256000e-01 5.840000e-02 0.000000e+00
5.402000e-01 5.840000e-02 0.000000e+00
5.548000e-01 5.840000e-02 0.000000e+00
5.694000e-01 5.840000e-02 0.000000e+00
5.840000e-01 5.840000e-02 0.000000e+00
0.000000e+00 7.300000e-02 0.000000e+00
1.460000e-02 7.300000e-02 0.000000e+00
2.920000e-02 7.300000e-02 0.000000e+00
4.380000e-02 7.300000e-02 0.000000e+00
5.840000e-02 7.300000e-02 0.000000e+00
7.300000e-02 7.300000e-02 0.000000e+00
8.760000e-02 7.300000e-02 0.000000e+00
1.022000e-01 7.300000e-02 0.000000e+00
1.168000e-01 7.300000e-02 0.000000e+00
1.314000e-01 7.300000e-02 0.000000e+00
1.460000e-01 7.300000e-02 0.000000e+00
1.606000e-01 7.300000e-02 0.000000e+00
1.752000e-01 7.300000e-02 0.000000e+00
1.898000e-01 7.300000e-02 0.000000e+00
2.044000e-01 7.300000e-02 0.000000e+00
2.190000e-01 7.300000e-02 0.000000e+00
2.336000e-01 7.300000e-02 0.000000e+00
2.482000e-01 7.300000e-02 0.000000e+00
2.628000e-01 7.300000e-02 0.000000e+00
2.774000e-01 7.300000e-02 0.000000e+00
2.920000e-01 7.300000e-02 0.000000e+00
3.066000e-01 7.300000e-02 0.000000e+00
3.212000e-01 7.300000e-02 0.000000e+00
3.358000e-01 7.300000e-02 0.000000e+00
3.504000e-01 7.300000e-02 0.000000e+00
3.650000e-01 7.300000e-02 0.000000e+00
3.796000e-01 7.300000e-02 0.000000e+00
3.942000e-01 7.300000e-02 0.000000e+00
4.088000e-01 7.300000e-02 0.000000e+00
4.234000e-01 7.300000e-02 0.000000e+00
4.380000e-01 7.300000e-02 0.000000e+00
4.526000e-01 7.300000e-02 0.000000e+00
4.672000e-01 7.300000e-02 0.000000e+00
4.818000e-01 7.300000e-02 0.000000e+00
4.964000e-01 7.300000e-02 0.000000e+00
5.110000e-01 7.300000e-02 0.000000e+00
5.256000e-01 7.300000e-02 0.000000e+00
5.402000e-01 7.300000e-02 0.000000e+00
5.548000e-01 7.300000e-02 0.000000e+00
5.694000e-01 7.300000e-02 0.000000e+00
5.840000e-01 7.300000e-02 0.000000e+00
0.000000e+00 8.760000e-02 0.000000e+00
1.460000e-02 8.760000e-02 0.000000e+00
2.920000e-02 8.760000e-02 0.000000e+00
4.380000e-02 8.760000e-02 0.000000e+00
5.840000e-02 8.760000e-02 0.000000e+00
7.300000e-02 8.760000e-02 0.000000e+00
8.760000e-02 8.760000e-02 0.000000e+00
1.022000e-01 8.760000e-02 0.000000e+00
[...]
POINT_DATA 11767
VECTORS Velocity float
0.000000e+00 0.000000e+00 0.000000e+00
1.702383e-02 0.000000e+00 0.000000e+00
2.913562e-02 0.000000e+00 0.000000e+00
3.908310e-02 0.000000e+00 0.000000e+00
4.750587e-02 0.000000e+00 0.000000e+00
5.510657e-02 0.000000e+00 0.000000e+00
6.202003e-02 0.000000e+00 0.000000e+00
6.844997e-02 0.000000e+00 0.000000e+00
7.443123e-02 0.000000e+00 0.000000e+00
8.007308e-02 0.000000e+00 0.000000e+00
8.546591e-02 0.000000e+00 0.000000e+00
9.076110e-02 0.000000e+00 0.000000e+00
9.609234e-02 0.000000e+00 0.000000e+00
1.015644e-01 0.000000e+00 0.000000e+00
1.071479e-01 0.000000e+00 0.000000e+00
1.126832e-01 0.000000e+00 0.000000e+00
1.179580e-01 0.000000e+00 0.000000e+00
1.228055e-01 0.000000e+00 0.000000e+00
1.270855e-01 0.000000e+00 0.000000e+00
1.307040e-01 0.000000e+00 0.000000e+00
1.336133e-01 0.000000e+00 0.000000e+00
1.358650e-01 0.000000e+00 0.000000e+00
1.374602e-01 0.000000e+00 0.000000e+00
1.384654e-01 0.000000e+00 0.000000e+00
1.388443e-01 0.000000e+00 0.000000e+00
1.385937e-01 0.000000e+00 0.000000e+00
1.375640e-01 0.000000e+00 0.000000e+00
1.357305e-01 0.000000e+00 0.000000e+00
1.330064e-01 0.000000e+00 0.000000e+00
1.295216e-01 0.000000e+00 0.000000e+00
1.253316e-01 0.000000e+00 0.000000e+00
1.207101e-01 0.000000e+00 0.000000e+00
1.158590e-01 0.000000e+00 0.000000e+00
1.109723e-01 0.000000e+00 0.000000e+00
1.059032e-01 0.000000e+00 0.000000e+00
1.002369e-01 0.000000e+00 0.000000e+00
9.258721e-02 0.000000e+00 0.000000e+00
8.382755e-02 0.000000e+00 0.000000e+00
6.797708e-02 0.000000e+00 0.000000e+00
4.983192e-02 0.000000e+00 0.000000e+00
0.000000e+00 0.000000e+00 0.000000e+00
0.000000e+00 -5.231160e-13 0.000000e+00
1.702383e-02 -3.326448e-13 0.000000e+00
2.913562e-02 -2.810836e-13 0.000000e+00
3.908310e-02 -3.869143e-13 0.000000e+00
4.750587e-02 -5.766964e-13 0.000000e+00
5.510657e-02 -5.915564e-13 0.000000e+00
6.202003e-02 -8.479562e-13 0.000000e+00
6.844997e-02 -7.978306e-13 0.000000e+00
7.443123e-02 -8.062101e-13 0.000000e+00
8.007308e-02 -8.935429e-13 0.000000e+00
8.546591e-02 -8.088498e-13 0.000000e+00
9.076110e-02 -7.880763e-13 0.000000e+00
9.609234e-02 -4.404941e-13 0.000000e+00
1.015644e-01 -4.932345e-13 0.000000e+00
1.071479e-01 -3.930710e-13 0.000000e+00
1.126832e-01 -1.964453e-13 0.000000e+00
1.179580e-01 -1.042217e-13 0.000000e+00
1.228055e-01 9.064786e-14 0.000000e+00
1.270855e-01 1.961602e-14 0.000000e+00
1.307040e-01 1.570069e-13 0.000000e+00
1.336133e-01 8.258376e-14 0.000000e+00
1.358650e-01 1.960417e-13 0.000000e+00
1.374602e-01 4.303075e-14 0.000000e+00
1.384654e-01 1.267268e-14 0.000000e+00
1.388443e-01 -9.529928e-14 0.000000e+00
1.385937e-01 -2.606288e-14 0.000000e+00
1.375640e-01 2.346525e-14 0.000000e+00
1.357305e-01 1.506164e-13 0.000000e+00
1.330064e-01 2.424752e-13 0.000000e+00
1.295216e-01 1.942327e-13 0.000000e+00
1.253316e-01 1.712307e-13 0.000000e+00
1.207101e-01 6.502632e-14 0.000000e+00
1.158590e-01 -1.736690e-13 0.000000e+00
1.109723e-01 -6.846538e-14 0.000000e+00
1.059032e-01 -1.727956e-13 0.000000e+00
1.002369e-01 3.799464e-14 0.000000e+00
9.258721e-02 -5.452019e-14 0.000000e+00
8.382755e-02 7.723695e-14 0.000000e+00
6.797708e-02 -2.540328e-14 0.000000e+00
4.983192e-02 3.419872e-13 0.000000e+00
0.000000e+00 3.042735e-13 0.000000e+00
0.000000e+00 -6.458622e-13 0.000000e+00
1.702383e-02 -2.829629e-13 0.000000e+00
2.913562e-02 -4.069274e-13 0.000000e+00
3.908310e-02 -6.072128e-13 0.000000e+00
4.750587e-02 -8.727469e-13 0.000000e+00
5.510657e-02 -1.001880e-12 0.000000e+00
6.202003e-02 -1.263366e-12 0.000000e+00
6.844997e-02 -1.336398e-12 0.000000e+00
7.443123e-02 -1.335790e-12 0.000000e+00
8.007308e-02 -1.447262e-12 0.000000e+00
8.546591e-02 -1.310820e-12 0.000000e+00
9.076110e-02 -1.199044e-12 0.000000e+00
9.609234e-02 -6.842363e-13 0.000000e+00
1.015644e-01 -7.697391e-13 0.000000e+00
1.071479e-01 -6.197424e-13 0.000000e+00
1.126832e-01 -2.673713e-13 0.000000e+00
1.179580e-01 -9.992431e-14 0.000000e+00
1.228055e-01 1.239194e-13 0.000000e+00
1.270855e-01 6.054227e-14 0.000000e+00
1.307040e-01 2.022967e-13 0.000000e+00
1.336133e-01 1.583977e-13 0.000000e+00
1.358650e-01 3.400569e-13 0.000000e+00
1.374602e-01 1.694843e-13 0.000000e+00
1.384654e-01 1.657815e-13 0.000000e+00
1.388443e-01 -5.293352e-14 0.000000e+00
1.385937e-01 4.631415e-14 0.000000e+00
1.375640e-01 3.819138e-14 0.000000e+00
1.357305e-01 1.397944e-13 0.000000e+00
1.330064e-01 2.582629e-13 0.000000e+00
1.295216e-01 2.350170e-13 0.000000e+00
1.253316e-01 2.854125e-13 0.000000e+00
1.207101e-01 1.205033e-13 0.000000e+00
1.158590e-01 -2.050163e-13 0.000000e+00
1.109723e-01 -6.414318e-14 0.000000e+00
1.059032e-01 -1.607464e-13 0.000000e+00
1.002369e-01 -5.645380e-15 0.000000e+00
9.258721e-02 -6.177558e-15 0.000000e+00
8.382755e-02 9.541392e-14 0.000000e+00
6.797708e-02 8.876984e-15 0.000000e+00
4.983192e-02 3.429174e-13 0.000000e+00
0.000000e+00 6.220122e-13 0.000000e+00
0.000000e+00 -8.285901e-13 0.000000e+00
1.702383e-02 -2.993979e-13 0.000000e+00
2.913562e-02 -5.453955e-13 0.000000e+00
3.908310e-02 -5.845445e-13 0.000000e+00
4.750587e-02 -8.212280e-13 0.000000e+00
5.510657e-02 -1.127780e-12 0.000000e+00
6.202003e-02 -1.185426e-12 0.000000e+00
6.844997e-02 -1.459207e-12 0.000000e+00
7.443123e-02 -1.354447e-12 0.000000e+00
8.007308e-02 -1.456425e-12 0.000000e+00
8.546591e-02 -1.265887e-12 0.000000e+00
9.076110e-02 -1.194833e-12 0.000000e+00
9.609234e-02 -6.025930e-13 0.000000e+00
1.015644e-01 -7.064130e-13 0.000000e+00
1.071479e-01 -5.695824e-13 0.000000e+00
1.126832e-01 -1.510770e-13 0.000000e+00
1.179580e-01 -6.029971e-14 0.000000e+00
1.228055e-01 2.474084e-13 0.000000e+00
1.270855e-01 4.564485e-14 0.000000e+00
1.307040e-01 2.435114e-13 0.000000e+00
1.336133e-01 1.467989e-13 0.000000e+00
1.358650e-01 4.046182e-13 0.000000e+00
1.374602e-01 2.090663e-13 0.000000e+00
1.384654e-01 2.933729e-13 0.000000e+00
1.388443e-01 3.509305e-14 0.000000e+00
1.385937e-01 1.250901e-13 0.000000e+00
1.375640e-01 3.758012e-14 0.000000e+00
1.357305e-01 5.772154e-14 0.000000e+00
1.330064e-01 1.603960e-13 0.000000e+00
1.295216e-01 1.759995e-13 0.000000e+00
1.253316e-01 2.698206e-13 0.000000e+00
1.207101e-01 1.336674e-13 0.000000e+00
1.158590e-01 -1.531522e-13 0.000000e+00
1.109723e-01 -4.468957e-15 0.000000e+00
1.059032e-01 -1.117702e-13 0.000000e+00
1.002369e-01 4.970484e-14 0.000000e+00
9.258721e-02 -6.028407e-14 0.000000e+00
8.382755e-02 2.628903e-13 0.000000e+00
6.797708e-02 -9.910558e-14 0.000000e+00
4.983192e-02 3.283978e-13 0.000000e+00
0.000000e+00 4.241304e-13 0.000000e+00
0.000000e+00 -4.076593e-14 0.000000e+00
1.702383e-02 -6.099273e-13 0.000000e+00
2.913562e-02 -4.452279e-13 0.000000e+00
3.908310e-02 -4.526227e-13 0.000000e+00
4.750587e-02 -7.577857e-13 0.000000e+00
5.510657e-02 -9.259496e-13 0.000000e+00
6.202003e-02 -8.631156e-13 0.000000e+00
6.844997e-02 -1.156094e-12 0.000000e+00
7.443123e-02 -1.003491e-12 0.000000e+00
8.007308e-02 -1.046890e-12 0.000000e+00
8.546591e-02 -8.584837e-13 0.000000e+00
9.076110e-02 -8.874850e-13 0.000000e+00
9.609234e-02 -3.232307e-13 0.000000e+00
1.015644e-01 -4.795693e-13 0.000000e+00
1.071479e-01 -3.300514e-13 0.000000e+00
1.126832e-01 -8.985440e-15 0.000000e+00
1.179580e-01 2.910913e-14 0.000000e+00
1.228055e-01 2.746359e-13 0.000000e+00
1.270855e-01 2.012077e-14 0.000000e+00
1.307040e-01 1.905987e-13 0.000000e+00
1.336133e-01 7.499279e-14 0.000000e+00
1.358650e-01 2.922068e-13 0.000000e+00
1.374602e-01 1.180320e-13 0.000000e+00
1.384654e-01 2.225445e-13 0.000000e+00
1.388443e-01 1.884356e-14 0.000000e+00
1.385937e-01 4.442086e-14 0.000000e+00
1.375640e-01 3.459718e-14 0.000000e+00
1.357305e-01 -1.461564e-14 0.000000e+00
1.330064e-01 8.704893e-14 0.000000e+00
1.295216e-01 1.161954e-13 0.000000e+00
1.253316e-01 1.371203e-13 0.000000e+00
1.207101e-01 1.873649e-14 0.000000e+00
1.158590e-01 -1.029770e-13 0.000000e+00
1.109723e-01 -7.690662e-14 0.000000e+00
1.059032e-01 -8.639531e-14 0.000000e+00
1.002369e-01 4.423665e-14 0.000000e+00
9.258721e-02 -3.347383e-14 0.000000e+00
8.382755e-02 3.073373e-13 0.000000e+00
6.797708e-02 -3.595290e-14 0.000000e+00
4.983192e-02 1.406491e-13 0.000000e+00
0.000000e+00 5.655687e-13 0.000000e+00
0.000000e+00 -2.526016e-13 0.000000e+00
1.702383e-02 -4.667850e-13 0.000000e+00
2.913562e-02 -2.946145e-13 0.000000e+00
3.908310e-02 -2.207724e-13 0.000000e+00
4.750587e-02 -4.632235e-13 0.000000e+00
5.510657e-02 -4.663235e-13 0.000000e+00
6.202003e-02 -4.198196e-13 0.000000e+00
6.844997e-02 -6.085886e-13 0.000000e+00
7.443123e-02 -5.347342e-13 0.000000e+00
8.007308e-02 -4.996040e-13 0.000000e+00
8.546591e-02 -4.299573e-13 0.000000e+00
9.076110e-02 -4.160805e-13 0.000000e+00
9.609234e-02 -9.513177e-14 0.000000e+00
1.015644e-01 -2.413325e-13 0.000000e+00
1.071479e-01 -1.293925e-13 0.000000e+00
1.126832e-01 2.527105e-14 0.000000e+00
1.179580e-01 5.354420e-14 0.000000e+00
1.228055e-01 1.479300e-13 0.000000e+00
1.270855e-01 3.573457e-14 0.000000e+00
1.307040e-01 7.817475e-14 0.000000e+00
1.336133e-01 6.621796e-15 0.000000e+00
1.358650e-01 1.112704e-13 0.000000e+00
1.374602e-01 1.733226e-14 0.000000e+00
1.384654e-01 5.954556e-14 0.000000e+00
1.388443e-01 -3.406876e-14 0.000000e+00
1.385937e-01 -5.476720e-14 0.000000e+00
1.375640e-01 1.494914e-14 0.000000e+00
1.357305e-01 -3.952612e-14 0.000000e+00
1.330064e-01 6.343321e-14 0.000000e+00
1.295216e-01 6.024300e-14 0.000000e+00
1.253316e-01 3.624921e-14 0.000000e+00
1.207101e-01 -8.170685e-14 0.000000e+00
1.158590e-01 -7.573097e-14 0.000000e+00
1.109723e-01 -8.246506e-14 0.000000e+00
1.059032e-01 -8.471884e-14 0.000000e+00
1.002369e-01 6.609188e-15 0.000000e+00
9.258721e-02 1.287686e-14 0.000000e+00
8.382755e-02 2.281146e-13 0.000000e+00
6.797708e-02 -4.148058e-14 0.000000e+00
4.983192e-02 1.343402e-13 0.000000e+00
0.000000e+00 3.091374e-13 0.000000e+00
0.000000e+00 0.000000e+00 0.000000e+00
1.702383e-02 0.000000e+00 0.000000e+00
2.913562e-02 0.000000e+00 0.000000e+00
3.908310e-02 0.000000e+00 0.000000e+00
4.750587e-02 0.000000e+00 0.000000e+00
5.510657e-02 0.000000e+00 0.000000e+00
6.202003e-02 0.000000e+00 0.000000e+00
6.844997e-02 0.000000e+00 0.000000e+00
7.443123e-02 0.000000e+00 0.000000e+00
8.007308e-02 0.000000e+00 0.000000e+00
8.546591e-02 0.000000e+00 0.000000e+00
9.076110e-02 0.000000e+00 0.000000e+00
9.609234e-02 0.000000e+00 0.000000e+00
1.015644e-01 0.000000e+00 0.000000e+00
1.071479e-01 0.000000e+00 0.000000e+00
1.126832e-01 0.000000e+00 0.000000e+00
1.179580e-01 0.000000e+00 0.000000e+00
1.228055e-01 0.000000e+00 0.000000e+00
1.270855e-01 0.000000e+00 0.000000e+00
1.307040e-01 0.000000e+00 0.000000e+00
1.336133e-01 0.000000e+00 0.000000e+00
1.358650e-01 0.000000e+00 0.000000e+00
1.374602e-01 0.000000e+00 0.000000e+00
1.384654e-01 0.000000e+00 0.000000e+00
1.388443e-01 0.000000e+00 0.000000e+00
1.385937e-01 0.000000e+00 0.000000e+00
1.375640e-01 0.000000e+00 0.000000e+00
1.357305e-01 0.000000e+00 0.000000e+00
1.330064e-01 0.000000e+00 0.000000e+00
1.295216e-01 0.000000e+00 0.000000e+00
1.253316e-01 0.000000e+00 0.000000e+00
1.207101e-01 0.000000e+00 0.000000e+00
1.158590e-01 0.000000e+00 0.000000e+00
1.109723e-01 0.000000e+00 0.000000e+00
1.059032e-01 0.000000e+00 0.000000e+00
1.002369e-01 0.000000e+00 0.000000e+00
9.258721e-02 0.000000e+00 0.000000e+00
8.382755e-02 0.000000e+00 0.000000e+00
6.797708e-02 0.000000e+00 0.000000e+00
4.983192e-02 0.000000e+00 0.000000e+00
0.000000e+00 0.000000e+00 0.000000e+00
0.000000e+00 0.000000e+00 -1.545880e-02
3.104253e-03 0.000000e+00 -1.358816e-02
8.203417e-03 0.000000e+00 -1.137355e-02
1.380868e-02 0.000000e+00 -1.045054e-02
1.962800e-02 0.000000e+00 -9.687566e-03
2.550383e-02 0.000000e+00 -9.229788e-03
3.133197e-02 0.000000e+00 -8.802479e-03
3.703223e-02 0.000000e+00 -8.444344e-03
4.250098e-02 0.000000e+00 -8.073888e-03
4.761498e-02 0.000000e+00 -7.747973e-03
5.233724e-02 0.000000e+00 -7.497234e-03
5.667589e-02 0.000000e+00 -7.357633e-03
6.066816e-02 0.000000e+00 -7.314606e-03
6.433177e-02 0.000000e+00 -7.305785e-03
6.766312e-02 0.000000e+00 -7.227161e-03
7.065603e-02 0.000000e+00 -7.001305e-03
7.326610e-02 0.000000e+00 -6.634239e-03
7.550764e-02 0.000000e+00 -6.187871e-03
7.749855e-02 0.000000e+00 -5.719452e-03
7.940308e-02 0.000000e+00 -5.235993e-03
8.122321e-02 0.000000e+00 -4.722089e-03
8.274387e-02 0.000000e+00 -4.141191e-03
8.370964e-02 0.000000e+00 -3.498473e-03
8.388212e-02 0.000000e+00 -2.813322e-03
8.317010e-02 0.000000e+00 -2.098516e-03
8.153536e-02 0.000000e+00 -1.335991e-03
7.905904e-02 0.000000e+00 -5.373644e-04
7.584595e-02 0.000000e+00 2.369615e-04
7.216990e-02 0.000000e+00 9.105620e-04
6.828606e-02 0.000000e+00 1.404286e-03
6.456450e-02 0.000000e+00 1.713176e-03
6.112710e-02 0.000000e+00 1.799232e-03
5.808091e-02 0.000000e+00 1.768892e-03
5.510815e-02 0.000000e+00 1.853744e-03
5.203556e-02 0.000000e+00 1.977618e-03
4.861978e-02 0.000000e+00 3.380423e-03
4.436690e-02 0.000000e+00 3.953761e-03
3.876111e-02 0.000000e+00 8.624338e-03
3.019889e-02 0.000000e+00 1.002287e-02
1.867132e-02 0.000000e+00 2.448745e-02
0.000000e+00 0.000000e+00 4.318848e-02
0.000000e+00 -2.234722e-13 -1.545880e-02
3.104253e-03 -7.088690e-14 -1.358816e-02
8.203417e-03 -3.632732e-13 -1.137355e-02
1.380868e-02 -1.722205e-13 -1.045054e-02
1.962800e-02 -2.627927e-13 -9.687566e-03
2.550383e-02 -5.484173e-13 -9.229788e-03
3.133197e-02 -6.097493e-13 -8.802479e-03
3.703223e-02 -4.490150e-13 -8.444344e-03
4.250098e-02 -4.598053e-13 -8.073888e-03
4.761498e-02 -2.989469e-13 -7.747973e-03
5.233724e-02 -1.239728e-13 -7.497234e-03
5.667589e-02 9.145061e-14 -7.357633e-03
6.066816e-02 2.269579e-13 -7.314606e-03
6.433177e-02 4.010615e-13 -7.305785e-03
6.766312e-02 4.544484e-13 -7.227161e-03
7.065603e-02 6.100858e-13 -7.001305e-03
7.326610e-02 5.953865e-13 -6.634239e-03
7.550764e-02 6.008817e-13 -6.187871e-03
7.749855e-02 4.715033e-13 -5.719452e-03
7.940308e-02 2.771606e-13 -5.235993e-03
8.122321e-02 1.935667e-13 -4.722089e-03
8.274387e-02 1.101218e-13 -4.141191e-03
8.370964e-02 7.281775e-14 -3.498473e-03
8.388212e-02 1.229052e-13 -2.813322e-03
8.317010e-02 4.022442e-14 -2.098516e-03
8.153536e-02 -3.819260e-14 -1.335991e-03
7.905904e-02 -1.871605e-13 -5.373644e-04
7.584595e-02 -4.248189e-13 2.369615e-04
7.216990e-02 -6.485534e-13 9.105620e-04
6.828606e-02 -3.100778e-13 1.404286e-03
6.456450e-02 -1.077542e-13 1.713176e-03
6.112710e-02 2.402300e-13 1.799232e-03
5.808091e-02 2.389839e-13 1.768892e-03
5.510815e-02 4.982671e-13 1.853744e-03
5.203556e-02 3.166096e-13 1.977618e-03
4.861978e-02 4.242511e-13 3.380423e-03
4.436690e-02 6.891735e-14 3.953761e-03
3.876111e-02 2.214848e-13 8.624338e-03
3.019889e-02 5.445119e-14 1.002287e-02
1.867132e-02 -4.857698e-14 2.448745e-02
0.000000e+00 2.950023e-13 4.318848e-02
0.000000e+00 -1.823910e-13 -1.545880e-02
3.104253e-03 -2.284495e-13 -1.358816e-02
8.203417e-03 -4.758840e-13 -1.137355e-02
1.380868e-02 -3.652333e-13 -1.045054e-02
1.962800e-02 -3.825313e-13 -9.687566e-03
2.550383e-02 -7.237671e-13 -9.229788e-03
3.133197e-02 -8.278184e-13 -8.802479e-03
3.703223e-02 -7.464156e-13 -8.444344e-03
4.250098e-02 -7.665486e-13 -8.073888e-03
4.761498e-02 -5.489972e-13 -7.747973e-03
5.233724e-02 -1.869850e-13 -7.497234e-03
5.667589e-02 2.170865e-13 -7.357633e-03
6.066816e-02 2.072943e-13 -7.314606e-03
6.433177e-02 5.120235e-13 -7.305785e-03
6.766312e-02 5.239518e-13 -7.227161e-03
7.065603e-02 7.831105e-13 -7.001305e-03
7.326610e-02 8.008621e-13 -6.634239e-03
7.550764e-02 7.330371e-13 -6.187871e-03
7.749855e-02 7.312661e-13 -5.719452e-03
7.940308e-02 3.533608e-13 -5.235993e-03
8.122321e-02 3.766974e-13 -4.722089e-03
8.274387e-02 1.261488e-13 -4.141191e-03
8.370964e-02 1.483579e-13 -3.498473e-03
8.388212e-02 1.258895e-13 -2.813322e-03
8.317010e-02 4.888583e-14 -2.098516e-03
8.153536e-02 8.579675e-14 -1.335991e-03
7.905904e-02 -5.297768e-14 -5.373644e-04
7.584595e-02 -2.898139e-13 2.369615e-04
7.216990e-02 -6.939753e-13 9.105620e-04
6.828606e-02 -4.836518e-13 1.404286e-03
6.456450e-02 -4.030620e-13 1.713176e-03
6.112710e-02 -1.171968e-14 1.799232e-03
5.808091e-02 1.590767e-13 1.768892e-03
5.510815e-02 3.850760e-13 1.853744e-03
5.203556e-02 2.776755e-13 1.977618e-03
4.861978e-02 6.460568e-13 3.380423e-03
4.436690e-02 1.504634e-13 3.953761e-03
3.876111e-02 1.945407e-13 8.624338e-03
3.019889e-02 2.484883e-13 1.002287e-02
1.867132e-02 -1.514476e-13 2.448745e-02
0.000000e+00 4.238522e-13 4.318848e-02
0.000000e+00 -3.194309e-13 -1.545880e-02
3.104253e-03 -2.683999e-13 -1.358816e-02
8.203417e-03 -3.634010e-13 -1.137355e-02
1.380868e-02 -2.803100e-13 -1.045054e-02
1.962800e-02 -3.183267e-13 -9.687566e-03
2.550383e-02 -5.792566e-13 -9.229788e-03
3.133197e-02 -6.344654e-13 -8.802479e-03
3.703223e-02 -7.062840e-13 -8.444344e-03
4.250098e-02 -5.872674e-13 -8.073888e-03
4.761498e-02 -5.415578e-13 -7.747973e-03
5.233724e-02 -2.137358e-13 -7.497234e-03
5.667589e-02 7.279083e-14 -7.357633e-03
6.066816e-02 7.831783e-14 -7.314606e-03
6.433177e-02 3.200508e-13 -7.305785e-03
6.766312e-02 2.630008e-13 -7.227161e-03
7.065603e-02 4.869057e-13 -7.001305e-03
7.326610e-02 4.707347e-13 -6.634239e-03
7.550764e-02 5.736721e-13 -6.187871e-03
7.749855e-02 5.543292e-13 -5.719452e-03
7.940308e-02 3.409703e-13 -5.235993e-03
8.122321e-02 3.699438e-13 -4.722089e-03
8.274387e-02 1.055241e-13 -4.141191e-03
8.370964e-02 1.206855e-13 -3.498473e-03
8.388212e-02 8.485761e-14 -2.813322e-03
8.317010e-02 9.816300e-14 -2.098516e-03
8.153536e-02 2.919687e-13 -1.335991e-03
7.905904e-02 2.501602e-13 -5.373644e-04
7.584595e-02 3.385681e-14 2.369615e-04
7.216990e-02 -4.515681e-13 9.105620e-04
6.828606e-02 -4.283401e-13 1.404286e-03
6.456450e-02 -4.906503e-13 1.713176e-03
6.112710e-02 -2.806887e-13 1.799232e-03
5.808091e-02 -6.371359e-14 1.768892e-03
5.510815e-02 2.206644e-13 1.853744e-03
5.203556e-02 1.359521e-13 1.977618e-03
4.861978e-02 5.211988e-13 3.380423e-03
4.436690e-02 1.239036e-13 3.953761e-03
3.876111e-02 1.559218e-13 8.624338e-03
3.019889e-02 4.133143e-14 1.002287e-02
1.867132e-02 4.165671e-14 2.448745e-02
0.000000e+00 3.078569e-13 4.318848e-02
0.000000e+00 -3.957657e-13 -1.545880e-02
3.104253e-03 -1.173104e-13 -1.358816e-02
8.203417e-03 -1.516697e-13 -1.137355e-02
1.380868e-02 -3.047453e-13 -1.045054e-02
1.962800e-02 -2.732799e-13 -9.687566e-03
2.550383e-02 -3.078109e-13 -9.229788e-03
3.133197e-02 -3.629329e-13 -8.802479e-03
3.703223e-02 -3.167407e-13 -8.444344e-03
4.250098e-02 -2.615020e-13 -8.073888e-03
4.761498e-02 -3.353072e-13 -7.747973e-03
5.233724e-02 -2.071101e-13 -7.497234e-03
5.667589e-02 -6.599661e-14 -7.357633e-03
6.066816e-02 -2.583723e-14 -7.314606e-03
6.433177e-02 1.929569e-14 -7.305785e-03
6.766312e-02 -8.473751e-15 -7.227161e-03
7.065603e-02 6.482730e-14 -7.001305e-03
7.326610e-02 4.278646e-14 -6.634239e-03
7.550764e-02 2.048974e-13 -6.187871e-03
7.749855e-02 2.069523e-13 -5.719452e-03
7.940308e-02 1.341669e-13 -5.235993e-03
8.122321e-02 2.041093e-13 -4.722089e-03
8.274387e-02 -1.294687e-14 -4.141191e-03
8.370964e-02 2.747599e-14 -3.498473e-03
8.388212e-02 7.050958e-14 -2.813322e-03
8.317010e-02 3.117153e-14 -2.098516e-03
8.153536e-02 2.944028e-13 -1.335991e-03
7.905904e-02 2.699703e-13 -5.373644e-04
7.584595e-02 -3.793719e-14 2.369615e-04
7.216990e-02 -2.761882e-13 9.105620e-04
6.828606e-02 -3.957873e-13 1.404286e-03
6.456450e-02 -2.839766e-13 1.713176e-03
6.112710e-02 -4.782690e-14 1.799232e-03
5.808091e-02 -9.549666e-14 1.768892e-03
5.510815e-02 1.107492e-13 1.853744e-03
5.203556e-02 1.759995e-13 1.977618e-03
4.861978e-02 3.502226e-13 3.380423e-03
4.436690e-02 2.779818e-13 3.953761e-03
3.876111e-02 1.026159e-13 8.624338e-03
3.019889e-02 9.816484e-14 1.002287e-02
1.867132e-02 -3.366882e-14 2.448745e-02
0.000000e+00 4.011542e-13 4.318848e-02
0.000000e+00 -1.922512e-13 -1.545880e-02
3.104253e-03 -1.114036e-13 -1.358816e-02
8.203417e-03 -2.100957e-13 -1.137355e-02
1.380868e-02 -2.137002e-13 -1.045054e-02
1.962800e-02 -7.723257e-14 -9.687566e-03
2.550383e-02 -6.144704e-14 -9.229788e-03
3.133197e-02 -1.553879e-13 -8.802479e-03
3.703223e-02 -6.657383e-14 -8.444344e-03
4.250098e-02 -9.353029e-14 -8.073888e-03
4.761498e-02 -1.678771e-13 -7.747973e-03