# vtk DataFile Version 3.0
vtk output
ASCII
DATASET UNSTRUCTURED_GRID
POINTS 11767 float
0.000000e+00 0.000000e+00 0.000000e+00
1.460000e-02 0.000000e+00 0.000000e+00
2.920000e-02 0.000000e+00 0.000000e+00
4.380000e-02 0.000000e+00 0.000000e+00
5.840000e-02 0.000000e+00 0.000000e+00
7.300000e-02 0.000000e+00 0.000000e+00
8.760000e-02 0.000000e+00 0.000000e+00
1.022000e-01 0.000000e+00 0.000000e+00
1.168000e-01 0.000000e+00 0.000000e+00
1.314000e-01 0.000000e+00 0.000000e+00
1.460000e-01 0.000000e+00 0.000000e+00
1.606000e-01 0.000000e+00 0.000000e+00
1.752000e-01 0.000000e+00 0.000000e+00
1.898000e-01 0.000000e+00 0.000000e+00
2.044000e-01 0.000000e+00 0.000000e+00
2.190000e-01 0.000000e+00 0.000000e+00
2.336000e-01 0.000000e+00 0.000000e+00
2.482000e-01 0.000000e+00 0.000000e+00
2.628000e-01 0.000000e+00 0.000000e+00
2.774000e-01 0.000000e+00 0.000000e+00
2.920000e-01 0.000000e+00 0.000000e+00
3.066000e-01 0.000000e+00 0.000000e+00
3.212000e-01 0.000000e+00 0.000000e+00
3.358000e-01 0.000000e+00 0.000000e+00
3.504000e-01 0.000000e+00 0.000000e+00
3.650000e-01 0.000000e+00 0.000000e+00
3.796000e-01 0.000000e+00 0.000000e+00
3.942000e-01 0.000000e+00 0.000000e+00
4.088000e-01 0.000000e+00 0.000000e+00
4.234000e-01 0.000000e+00 0.000000e+00
4.380000e-01 0.000000e+00 0.000000e+00
4.526000e-01 0.000000e+00 0.000000e+00
4.672000e-01 0.000000e+00 0.000000e+00
4.818000e-01 0.000000e+00 0.000000e+00
4.964000e-01 0.000000e+00 0.000000e+00
5.110000e-01 0.000000e+00 0.000000e+00
5.256000e-01 0.000000e+00 0.000000e+00
5.402000e-01 0.000000e+00 0.000000e+00
5.548000e-01 0.000000e+00 0.000000e+00
5.694000e-01 0.000000e+00 0.000000e+00
5.840000e-01 0.000000e+00 0.000000e+00
0.000000e+00 1.460000e-02 0.000000e+00
1.460000e-02 1.460000e-02 0.000000e+00
2.920000e-02 1.460000e-02 0.000000e+00
4.380000e-02 1.460000e-02 0.000000e+00
5.840000e-02 1.460000e-02 0.000000e+00
7.300000e-02 1.460000e-02 0.000000e+00
8.760000e-02 1.460000e-02 0.000000e+00
1.022000e-01 1.460000e-02 0.000000e+00
1.168000e-01 1.460000e-02 0.000000e+00
1.314000e-01 1.460000e-02 0.000000e+00
1.460000e-01 1.460000e-02 0.000000e+00
1.606000e-01 1.460000e-02 0.000000e+00
1.752000e-01 1.460000e-02 0.000000e+00
1.898000e-01 1.460000e-02 0.000000e+00
2.044000e-01 1.460000e-02 0.000000e+00
2.190000e-01 1.460000e-02 0.000000e+00
2.336000e-01 1.460000e-02 0.000000e+00
2.482000e-01 1.460000e-02 0.000000e+00
2.628000e-01 1.460000e-02 0.000000e+00
2.774000e-01 1.460000e-02 0.000000e+00
2.920000e-01 1.460000e-02 0.000000e+00
3.066000e-01 1.460000e-02 0.000000e+00
3.212000e-01 1.460000e-02 0.000000e+00
3.358000e-01 1.460000e-02 0.000000e+00
3.504000e-01 1.460000e-02 0.000000e+00
3.650000e-01 1.460000e-02 0.000000e+00
3.796000e-01 1.460000e-02 0.000000e+00
3.942000e-01 1.460000e-02 0.000000e+00
4.088000e-01 1.460000e-02 0.000000e+00
4.234000e-01 1.460000e-02 0.000000e+00
4.380000e-01 1.460000e-02 0.000000e+00
4.526000e-01 1.460000e-02 0.000000e+00
4.672000e-01 1.460000e-02 0.000000e+00
4.818000e-01 1.460000e-02 0.000000e+00
4.964000e-01 1.460000e-02 0.000000e+00
5.110000e-01 1.460000e-02 0.000000e+00
5.256000e-01 1.460000e-02 0.000000e+00
5.402000e-01 1.460000e-02 0.000000e+00
5.548000e-01 1.460000e-02 0.000000e+00
5.694000e-01 1.460000e-02 0.000000e+00
5.840000e-01 1.460000e-02 0.000000e+00
0.000000e+00 2.920000e-02 0.000000e+00
1.460000e-02 2.920000e-02 0.000000e+00
2.920000e-02 2.920000e-02 0.000000e+00
4.380000e-02 2.920000e-02 0.000000e+00
5.840000e-02 2.920000e-02 0.000000e+00
7.300000e-02 2.920000e-02 0.000000e+00
8.760000e-02 2.920000e-02 0.000000e+00
1.022000e-01 2.920000e-02 0.000000e+00
1.168000e-01 2.920000e-02 0.000000e+00
1.314000e-01 2.920000e-02 0.000000e+00
1.460000e-01 2.920000e-02 0.000000e+00
1.606000e-01 2.920000e-02 0.000000e+00
1.752000e-01 2.920000e-02 0.000000e+00
1.898000e-01 2.920000e-02 0.000000e+00
2.044000e-01 2.920000e-02 0.000000e+00
2.190000e-01 2.920000e-02 0.000000e+00
2.336000e-01 2.920000e-02 0.000000e+00
2.482000e-01 2.920000e-02 0.000000e+00
2.628000e-01 2.920000e-02 0.000000e+00
2.774000e-01 2.920000e-02 0.000000e+00
2.920000e-01 2.920000e-02 0.000000e+00
3.066000e-01 2.920000e-02 0.000000e+00
3.212000e-01 2.920000e-02 0.000000e+00
3.358000e-01 2.920000e-02 0.000000e+00
3.504000e-01 2.920000e-02 0.000000e+00
3.650000e-01 2.920000e-02 0.000000e+00
3.796000e-01 2.920000e-02 0.000000e+00
3.942000e-01 2.920000e-02 0.000000e+00
4.088000e-01 2.920000e-02 0.000000e+00
4.234000e-01 2.920000e-02 0.000000e+00
4.380000e-01 2.920000e-02 0.000000e+00
4.526000e-01 2.920000e-02 0.000000e+00
4.672000e-01 2.920000e-02 0.000000e+00
4.818000e-01 2.920000e-02 0.000000e+00
4.964000e-01 2.920000e-02 0.000000e+00
5.110000e-01 2.920000e-02 0.000000e+00
5.256000e-01 2.920000e-02 0.000000e+00
5.402000e-01 2.920000e-02 0.000000e+00
5.548000e-01 2.920000e-02 0.000000e+00
5.694000e-01 2.920000e-02 0.000000e+00
5.840000e-01 2.920000e-02 0.000000e+00
0.000000e+00 4.380000e-02 0.000000e+00
1.460000e-02 4.380000e-02 0.000000e+00
2.920000e-02 4.380000e-02 0.000000e+00
4.380000e-02 4.380000e-02 0.000000e+00
5.840000e-02 4.380000e-02 0.000000e+00
7.300000e-02 4.380000e-02 0.000000e+00
8.760000e-02 4.380000e-02 0.000000e+00
1.022000e-01 4.380000e-02 0.000000e+00
1.168000e-01 4.380000e-02 0.000000e+00
1.314000e-01 4.380000e-02 0.000000e+00
1.460000e-01 4.380000e-02 0.000000e+00
1.606000e-01 4.380000e-02 0.000000e+00
1.752000e-01 4.380000e-02 0.000000e+00
1.898000e-01 4.380000e-02 0.000000e+00
2.044000e-01 4.380000e-02 0.000000e+00
2.190000e-01 4.380000e-02 0.000000e+00
2.336000e-01 4.380000e-02 0.000000e+00
2.482000e-01 4.380000e-02 0.000000e+00
2.628000e-01 4.380000e-02 0.000000e+00
2.774000e-01 4.380000e-02 0.000000e+00
2.920000e-01 4.380000e-02 0.000000e+00
3.066000e-01 4.380000e-02 0.000000e+00
3.212000e-01 4.380000e-02 0.000000e+00
3.358000e-01 4.380000e-02 0.000000e+00
3.504000e-01 4.380000e-02 0.000000e+00
3.650000e-01 4.380000e-02 0.000000e+00
3.796000e-01 4.380000e-02 0.000000e+00
3.942000e-01 4.380000e-02 0.000000e+00
4.088000e-01 4.380000e-02 0.000000e+00
4.234000e-01 4.380000e-02 0.000000e+00
4.380000e-01 4.380000e-02 0.000000e+00
4.526000e-01 4.380000e-02 0.000000e+00
4.672000e-01 4.380000e-02 0.000000e+00
4.818000e-01 4.380000e-02 0.000000e+00
4.964000e-01 4.380000e-02 0.000000e+00
5.110000e-01 4.380000e-02 0.000000e+00
5.256000e-01 4.380000e-02 0.000000e+00
5.402000e-01 4.380000e-02 0.000000e+00
5.548000e-01 4.380000e-02 0.000000e+00
5.694000e-01 4.380000e-02 0.000000e+00
5.840000e-01 4.380000e-02 0.000000e+00
0.000000e+00 5.840000e-02 0.000000e+00
1.460000e-02 5.840000e-02 0.000000e+00
2.920000e-02 5.840000e-02 0.000000e+00
4.380000e-02 5.840000e-02 0.000000e+00
5.840000e-02 5.840000e-02 0.000000e+00
7.300000e-02 5.840000e-02 0.000000e+00
8.760000e-02 5.840000e-02 0.000000e+00
1.022000e-01 5.840000e-02 0.000000e+00
1.168000e-01 5.840000e-02 0.000000e+00
1.314000e-01 5.840000e-02 0.000000e+00
1.460000e-01 5.840000e-02 0.000000e+00
1.606000e-01 5.840000e-02 0.000000e+00
1.752000e-01 5.840000e-02 0.000000e+00
1.898000e-01 5.840000e-02 0.000000e+00
2.044000e-01 5.840000e-02 0.000000e+00
2.190000e-01 5.840000e-02 0.000000e+00
2.336000e-01 5.840000e-02 0.000000e+00
2.482000e-01 5.840000e-02 0.000000e+00
2.628000e-01 5.840000e-02 0.000000e+00
2.774000e-01 5.840000e-02 0.000000e+00
2.920000e-01 5.840000e-02 0.000000e+00
3.066000e-01 5.840000e-02 0.000000e+00
3.212000e-01 5.840000e-02 0.000000e+00
3.358000e-01 5.840000e-02 0.000000e+00
3.504000e-01 5.840000e-02 0.000000e+00
3.650000e-01 5.840000e-02 0.000000e+00
3.796000e-01 5.840000e-02 0.000000e+00
3.942000e-01 5.840000e-02 0.000000e+00
4.088000e-01 5.840000e-02 0.000000e+00
4.234000e-01 5.840000e-02 0.000000e+00
4.380000e-01 5.840000e-02 0.000000e+00
4.526000e-01 5.840000e-02 0.000000e+00
4.672000e-01 5.840000e-02 0.000000e+00
4.818000e-01 5.840000e-02 0.000000e+00
4.964000e-01 5.840000e-02 0.000000e+00
5.110000e-01 5.840000e-02 0.000000e+00
5.256000e-01 5.840000e-02 0.000000e+00
5.402000e-01 5.840000e-02 0.000000e+00
5.548000e-01 5.840000e-02 0.000000e+00
5.694000e-01 5.840000e-02 0.000000e+00
5.840000e-01 5.840000e-02 0.000000e+00
0.000000e+00 7.300000e-02 0.000000e+00
1.460000e-02 7.300000e-02 0.000000e+00
2.920000e-02 7.300000e-02 0.000000e+00
4.380000e-02 7.300000e-02 0.000000e+00
5.840000e-02 7.300000e-02 0.000000e+00
7.300000e-02 7.300000e-02 0.000000e+00
8.760000e-02 7.300000e-02 0.000000e+00
1.022000e-01 7.300000e-02 0.000000e+00
1.168000e-01 7.300000e-02 0.000000e+00
1.314000e-01 7.300000e-02 0.000000e+00
1.460000e-01 7.300000e-02 0.000000e+00
1.606000e-01 7.300000e-02 0.000000e+00
1.752000e-01 7.300000e-02 0.000000e+00
1.898000e-01 7.300000e-02 0.000000e+00
2.044000e-01 7.300000e-02 0.000000e+00
2.190000e-01 7.300000e-02 0.000000e+00
2.336000e-01 7.300000e-02 0.000000e+00
2.482000e-01 7.300000e-02 0.000000e+00
2.628000e-01 7.300000e-02 0.000000e+00
2.774000e-01 7.300000e-02 0.000000e+00
2.920000e-01 7.300000e-02 0.000000e+00
3.066000e-01 7.300000e-02 0.000000e+00
3.212000e-01 7.300000e-02 0.000000e+00
3.358000e-01 7.300000e-02 0.000000e+00
3.504000e-01 7.300000e-02 0.000000e+00
3.650000e-01 7.300000e-02 0.000000e+00
3.796000e-01 7.300000e-02 0.000000e+00
3.942000e-01 7.300000e-02 0.000000e+00
4.088000e-01 7.300000e-02 0.000000e+00
4.234000e-01 7.300000e-02 0.000000e+00
4.380000e-01 7.300000e-02 0.000000e+00
4.526000e-01 7.300000e-02 0.000000e+00
4.672000e-01 7.300000e-02 0.000000e+00
4.818000e-01 7.300000e-02 0.000000e+00
4.964000e-01 7.300000e-02 0.000000e+00
5.110000e-01 7.300000e-02 0.000000e+00
5.256000e-01 7.300000e-02 0.000000e+00
5.402000e-01 7.300000e-02 0.000000e+00
5.548000e-01 7.300000e-02 0.000000e+00
5.694000e-01 7.300000e-02 0.000000e+00
5.840000e-01 7.300000e-02 0.000000e+00
0.000000e+00 8.760000e-02 0.000000e+00
1.460000e-02 8.760000e-02 0.000000e+00
2.920000e-02 8.760000e-02 0.000000e+00
4.380000e-02 8.760000e-02 0.000000e+00
5.840000e-02 8.760000e-02 0.000000e+00
7.300000e-02 8.760000e-02 0.000000e+00
8.760000e-02 8.760000e-02 0.000000e+00
1.022000e-01 8.760000e-02 0.000000e+00
[...]
POINT_DATA 11767
VECTORS Velocity float
0.000000e+00 0.000000e+00 0.000000e+00
1.651916e-02 0.000000e+00 0.000000e+00
2.770050e-02 0.000000e+00 0.000000e+00
3.714046e-02 0.000000e+00 0.000000e+00
4.581575e-02 0.000000e+00 0.000000e+00
5.471625e-02 0.000000e+00 0.000000e+00
6.399917e-02 0.000000e+00 0.000000e+00
7.361625e-02 0.000000e+00 0.000000e+00
8.321262e-02 0.000000e+00 0.000000e+00
9.243204e-02 0.000000e+00 0.000000e+00
1.008930e-01 0.000000e+00 0.000000e+00
1.082676e-01 0.000000e+00 0.000000e+00
1.142669e-01 0.000000e+00 0.000000e+00
1.187845e-01 0.000000e+00 0.000000e+00
1.217899e-01 0.000000e+00 0.000000e+00
1.233434e-01 0.000000e+00 0.000000e+00
1.237193e-01 0.000000e+00 0.000000e+00
1.233120e-01 0.000000e+00 0.000000e+00
1.224999e-01 0.000000e+00 0.000000e+00
1.215784e-01 0.000000e+00 0.000000e+00
1.206458e-01 0.000000e+00 0.000000e+00
1.196696e-01 0.000000e+00 0.000000e+00
1.185444e-01 0.000000e+00 0.000000e+00
1.172092e-01 0.000000e+00 0.000000e+00
1.156125e-01 0.000000e+00 0.000000e+00
1.138125e-01 0.000000e+00 0.000000e+00
1.118587e-01 0.000000e+00 0.000000e+00
1.099199e-01 0.000000e+00 0.000000e+00
1.080679e-01 0.000000e+00 0.000000e+00
1.064267e-01 0.000000e+00 0.000000e+00
1.049487e-01 0.000000e+00 0.000000e+00
1.035343e-01 0.000000e+00 0.000000e+00
1.020005e-01 0.000000e+00 0.000000e+00
9.997193e-02 0.000000e+00 0.000000e+00
9.714372e-02 0.000000e+00 0.000000e+00
9.318892e-02 0.000000e+00 0.000000e+00
8.713011e-02 0.000000e+00 0.000000e+00
7.999121e-02 0.000000e+00 0.000000e+00
6.587299e-02 0.000000e+00 0.000000e+00
4.931877e-02 0.000000e+00 0.000000e+00
0.000000e+00 0.000000e+00 0.000000e+00
0.000000e+00 -1.647805e-13 0.000000e+00
1.651916e-02 -1.501948e-13 0.000000e+00
2.770050e-02 -1.895305e-13 0.000000e+00
3.714046e-02 -2.354327e-13 0.000000e+00
4.581575e-02 -2.691885e-13 0.000000e+00
5.471625e-02 -3.507312e-13 0.000000e+00
6.399917e-02 -2.624652e-13 0.000000e+00
7.361625e-02 -1.783115e-13 0.000000e+00
8.321262e-02 -7.960138e-14 0.000000e+00
9.243204e-02 -3.422527e-14 0.000000e+00
1.008930e-01 1.986559e-15 0.000000e+00
1.082676e-01 -6.087808e-14 0.000000e+00
1.142669e-01 -3.748464e-14 0.000000e+00
1.187845e-01 -7.501336e-14 0.000000e+00
1.217899e-01 -7.942589e-14 0.000000e+00
1.233434e-01 -4.451318e-14 0.000000e+00
1.237193e-01 -6.091845e-14 0.000000e+00
1.233120e-01 -1.751126e-14 0.000000e+00
1.224999e-01 2.698414e-15 0.000000e+00
1.215784e-01 4.042727e-14 0.000000e+00
1.206458e-01 4.215050e-14 0.000000e+00
1.196696e-01 4.702722e-14 0.000000e+00
1.185444e-01 1.725724e-14 0.000000e+00
1.172092e-01 -3.141022e-14 0.000000e+00
1.156125e-01 -7.326213e-14 0.000000e+00
1.138125e-01 -7.262263e-14 0.000000e+00
1.118587e-01 -1.124775e-13 0.000000e+00
1.099199e-01 -3.006356e-14 0.000000e+00
1.080679e-01 4.166684e-14 0.000000e+00
1.064267e-01 1.796523e-13 0.000000e+00
1.049487e-01 2.059566e-13 0.000000e+00
1.035343e-01 1.957927e-13 0.000000e+00
1.020005e-01 3.731993e-14 0.000000e+00
9.997193e-02 2.140488e-14 0.000000e+00
9.714372e-02 -5.378410e-14 0.000000e+00
9.318892e-02 4.593728e-15 0.000000e+00
8.713011e-02 -4.152899e-14 0.000000e+00
7.999121e-02 7.806673e-14 0.000000e+00
6.587299e-02 2.966405e-14 0.000000e+00
4.931877e-02 2.759442e-13 0.000000e+00
0.000000e+00 1.850697e-13 0.000000e+00
0.000000e+00 -2.710483e-13 0.000000e+00
1.651916e-02 -1.853245e-13 0.000000e+00
2.770050e-02 -2.635483e-13 0.000000e+00
3.714046e-02 -3.541602e-13 0.000000e+00
4.581575e-02 -3.951607e-13 0.000000e+00
5.471625e-02 -5.230365e-13 0.000000e+00
6.399917e-02 -3.785579e-13 0.000000e+00
7.361625e-02 -2.918999e-13 0.000000e+00
8.321262e-02 -1.385848e-13 0.000000e+00
9.243204e-02 -9.335322e-14 0.000000e+00
1.008930e-01 -2.239108e-14 0.000000e+00
1.082676e-01 -1.275973e-13 0.000000e+00
1.142669e-01 -7.464260e-14 0.000000e+00
1.187845e-01 -1.256425e-13 0.000000e+00
1.217899e-01 -1.261610e-13 0.000000e+00
1.233434e-01 -7.515834e-14 0.000000e+00
1.237193e-01 -9.416618e-14 0.000000e+00
1.233120e-01 -4.192546e-14 0.000000e+00
1.224999e-01 -1.842004e-14 0.000000e+00
1.215784e-01 3.807281e-14 0.000000e+00
1.206458e-01 4.628116e-14 0.000000e+00
1.196696e-01 6.150417e-14 0.000000e+00
1.185444e-01 4.523844e-14 0.000000e+00
1.172092e-01 -8.899781e-15 0.000000e+00
1.156125e-01 -3.765638e-14 0.000000e+00
1.138125e-01 -3.181546e-14 0.000000e+00
1.118587e-01 -8.430783e-14 0.000000e+00
1.099199e-01 1.700766e-14 0.000000e+00
1.080679e-01 8.159501e-14 0.000000e+00
1.064267e-01 2.510350e-13 0.000000e+00
1.049487e-01 2.789173e-13 0.000000e+00
1.035343e-01 2.778150e-13 0.000000e+00
1.020005e-01 8.656304e-14 0.000000e+00
9.997193e-02 9.181773e-15 0.000000e+00
9.714372e-02 -5.575452e-14 0.000000e+00
9.318892e-02 -2.701260e-14 0.000000e+00
8.713011e-02 -3.865679e-14 0.000000e+00
7.999121e-02 3.977201e-14 0.000000e+00
6.587299e-02 4.687470e-14 0.000000e+00
4.931877e-02 2.511437e-13 0.000000e+00
0.000000e+00 2.200723e-13 0.000000e+00
0.000000e+00 -1.253171e-13 0.000000e+00
1.651916e-02 -1.305276e-13 0.000000e+00
2.770050e-02 -1.935883e-13 0.000000e+00
3.714046e-02 -2.806765e-13 0.000000e+00
4.581575e-02 -3.044186e-13 0.000000e+00
5.471625e-02 -4.137661e-13 0.000000e+00
6.399917e-02 -2.974621e-13 0.000000e+00
7.361625e-02 -2.647077e-13 0.000000e+00
8.321262e-02 -1.676690e-13 0.000000e+00
9.243204e-02 -1.411392e-13 0.000000e+00
1.008930e-01 -6.960084e-14 0.000000e+00
1.082676e-01 -1.642242e-13 0.000000e+00
1.142669e-01 -7.868462e-14 0.000000e+00
1.187845e-01 -1.212032e-13 0.000000e+00
1.217899e-01 -1.182390e-13 0.000000e+00
1.233434e-01 -5.503961e-14 0.000000e+00
1.237193e-01 -8.904161e-14 0.000000e+00
1.233120e-01 -4.168157e-14 0.000000e+00
1.224999e-01 -3.638610e-14 0.000000e+00
1.215784e-01 2.098769e-14 0.000000e+00
1.206458e-01 3.057420e-14 0.000000e+00
1.196696e-01 6.860793e-14 0.000000e+00
1.185444e-01 6.364958e-14 0.000000e+00
1.172092e-01 3.438858e-14 0.000000e+00
1.156125e-01 2.360266e-14 0.000000e+00
1.138125e-01 4.891448e-14 0.000000e+00
1.118587e-01 -1.347966e-14 0.000000e+00
1.099199e-01 8.115207e-14 0.000000e+00
1.080679e-01 1.039141e-13 0.000000e+00
1.064267e-01 2.359883e-13 0.000000e+00
1.049487e-01 2.495594e-13 0.000000e+00
1.035343e-01 2.708553e-13 0.000000e+00
1.020005e-01 9.307348e-14 0.000000e+00
9.997193e-02 2.334322e-14 0.000000e+00
9.714372e-02 -6.444911e-14 0.000000e+00
9.318892e-02 -1.252980e-14 0.000000e+00
8.713011e-02 -6.830754e-14 0.000000e+00
7.999121e-02 3.030695e-14 0.000000e+00
6.587299e-02 -4.547600e-14 0.000000e+00
4.931877e-02 1.817608e-13 0.000000e+00
0.000000e+00 1.718334e-13 0.000000e+00
0.000000e+00 -4.901479e-14 0.000000e+00
1.651916e-02 -8.579451e-14 0.000000e+00
2.770050e-02 -9.883846e-14 0.000000e+00
3.714046e-02 -1.382501e-13 0.000000e+00
4.581575e-02 -1.306799e-13 0.000000e+00
5.471625e-02 -1.982457e-13 0.000000e+00
6.399917e-02 -1.420035e-13 0.000000e+00
7.361625e-02 -1.784355e-13 0.000000e+00
8.321262e-02 -1.469480e-13 0.000000e+00
9.243204e-02 -1.486013e-13 0.000000e+00
1.008930e-01 -8.368637e-14 0.000000e+00
1.082676e-01 -1.509310e-13 0.000000e+00
1.142669e-01 -5.179771e-14 0.000000e+00
1.187845e-01 -7.574790e-14 0.000000e+00
1.217899e-01 -7.375641e-14 0.000000e+00
1.233434e-01 -2.401746e-14 0.000000e+00
1.237193e-01 -5.629812e-14 0.000000e+00
1.233120e-01 -2.041439e-14 0.000000e+00
1.224999e-01 -2.038718e-14 0.000000e+00
1.215784e-01 2.545864e-14 0.000000e+00
1.206458e-01 3.347292e-14 0.000000e+00
1.196696e-01 6.122124e-14 0.000000e+00
1.185444e-01 5.640513e-14 0.000000e+00
1.172092e-01 2.358488e-14 0.000000e+00
1.156125e-01 7.836504e-15 0.000000e+00
1.138125e-01 2.708609e-14 0.000000e+00
1.118587e-01 -2.664029e-14 0.000000e+00
1.099199e-01 6.019843e-14 0.000000e+00
1.080679e-01 7.992161e-14 0.000000e+00
1.064267e-01 1.924950e-13 0.000000e+00
1.049487e-01 1.911418e-13 0.000000e+00
1.035343e-01 2.182587e-13 0.000000e+00
1.020005e-01 7.489489e-14 0.000000e+00
9.997193e-02 2.297510e-14 0.000000e+00
9.714372e-02 -4.685720e-14 0.000000e+00
9.318892e-02 -2.023543e-14 0.000000e+00
8.713011e-02 -5.076849e-14 0.000000e+00
7.999121e-02 1.270845e-14 0.000000e+00
6.587299e-02 -1.135855e-14 0.000000e+00
4.931877e-02 1.314659e-13 0.000000e+00
0.000000e+00 1.447530e-13 0.000000e+00
0.000000e+00 -7.944042e-14 0.000000e+00
1.651916e-02 -5.560816e-14 0.000000e+00
2.770050e-02 -5.836217e-14 0.000000e+00
3.714046e-02 -5.316176e-14 0.000000e+00
4.581575e-02 -5.122716e-14 0.000000e+00
5.471625e-02 -6.852219e-14 0.000000e+00
6.399917e-02 -5.491052e-14 0.000000e+00
7.361625e-02 -8.364880e-14 0.000000e+00
8.321262e-02 -8.572473e-14 0.000000e+00
9.243204e-02 -9.060023e-14 0.000000e+00
1.008930e-01 -5.871043e-14 0.000000e+00
1.082676e-01 -9.045602e-14 0.000000e+00
1.142669e-01 -2.295171e-14 0.000000e+00
1.187845e-01 -3.911661e-14 0.000000e+00
1.217899e-01 -3.800715e-14 0.000000e+00
1.233434e-01 -8.391907e-15 0.000000e+00
1.237193e-01 -3.623836e-14 0.000000e+00
1.233120e-01 -5.790775e-15 0.000000e+00
1.224999e-01 -7.506110e-15 0.000000e+00
1.215784e-01 2.020797e-14 0.000000e+00
1.206458e-01 1.997415e-14 0.000000e+00
1.196696e-01 3.599652e-14 0.000000e+00
1.185444e-01 1.782869e-14 0.000000e+00
1.172092e-01 -1.214684e-14 0.000000e+00
1.156125e-01 -3.709980e-14 0.000000e+00
1.138125e-01 -2.334053e-14 0.000000e+00
1.118587e-01 -6.653995e-14 0.000000e+00
1.099199e-01 5.963855e-15 0.000000e+00
1.080679e-01 3.506667e-14 0.000000e+00
1.064267e-01 1.201592e-13 0.000000e+00
1.049487e-01 1.169207e-13 0.000000e+00
1.035343e-01 1.314697e-13 0.000000e+00
1.020005e-01 2.555250e-14 0.000000e+00
9.997193e-02 3.053358e-14 0.000000e+00
9.714372e-02 -4.843117e-14 0.000000e+00
9.318892e-02 4.450537e-15 0.000000e+00
8.713011e-02 -6.231451e-14 0.000000e+00
7.999121e-02 4.574017e-14 0.000000e+00
6.587299e-02 -2.773357e-14 0.000000e+00
4.931877e-02 1.726418e-13 0.000000e+00
0.000000e+00 1.311036e-13 0.000000e+00
0.000000e+00 0.000000e+00 0.000000e+00
1.651916e-02 0.000000e+00 0.000000e+00
2.770050e-02 0.000000e+00 0.000000e+00
3.714046e-02 0.000000e+00 0.000000e+00
4.581575e-02 0.000000e+00 0.000000e+00
5.471625e-02 0.000000e+00 0.000000e+00
6.399917e-02 0.000000e+00 0.000000e+00
7.361625e-02 0.000000e+00 0.000000e+00
8.321262e-02 0.000000e+00 0.000000e+00
9.243204e-02 0.000000e+00 0.000000e+00
1.008930e-01 0.000000e+00 0.000000e+00
1.082676e-01 0.000000e+00 0.000000e+00
1.142669e-01 0.000000e+00 0.000000e+00
1.187845e-01 0.000000e+00 0.000000e+00
1.217899e-01 0.000000e+00 0.000000e+00
1.233434e-01 0.000000e+00 0.000000e+00
1.237193e-01 0.000000e+00 0.000000e+00
1.233120e-01 0.000000e+00 0.000000e+00
1.224999e-01 0.000000e+00 0.000000e+00
1.215784e-01 0.000000e+00 0.000000e+00
1.206458e-01 0.000000e+00 0.000000e+00
1.196696e-01 0.000000e+00 0.000000e+00
1.185444e-01 0.000000e+00 0.000000e+00
1.172092e-01 0.000000e+00 0.000000e+00
1.156125e-01 0.000000e+00 0.000000e+00
1.138125e-01 0.000000e+00 0.000000e+00
1.118587e-01 0.000000e+00 0.000000e+00
1.099199e-01 0.000000e+00 0.000000e+00
1.080679e-01 0.000000e+00 0.000000e+00
1.064267e-01 0.000000e+00 0.000000e+00
1.049487e-01 0.000000e+00 0.000000e+00
1.035343e-01 0.000000e+00 0.000000e+00
1.020005e-01 0.000000e+00 0.000000e+00
9.997193e-02 0.000000e+00 0.000000e+00
9.714372e-02 0.000000e+00 0.000000e+00
9.318892e-02 0.000000e+00 0.000000e+00
8.713011e-02 0.000000e+00 0.000000e+00
7.999121e-02 0.000000e+00 0.000000e+00
6.587299e-02 0.000000e+00 0.000000e+00
4.931877e-02 0.000000e+00 0.000000e+00
0.000000e+00 0.000000e+00 0.000000e+00
0.000000e+00 0.000000e+00 -1.496046e-02
2.274785e-03 0.000000e+00 -1.278078e-02
6.458957e-03 0.000000e+00 -1.056100e-02
1.157461e-02 0.000000e+00 -1.031478e-02
1.776023e-02 0.000000e+00 -1.050928e-02
2.517932e-02 0.000000e+00 -1.119767e-02
3.365286e-02 0.000000e+00 -1.173962e-02
4.273630e-02 0.000000e+00 -1.196512e-02
5.176557e-02 0.000000e+00 -1.168621e-02
6.001856e-02 0.000000e+00 -1.093555e-02
6.687594e-02 0.000000e+00 -9.764067e-03
7.191555e-02 0.000000e+00 -8.291862e-03
7.502071e-02 0.000000e+00 -6.672637e-03
7.622856e-02 0.000000e+00 -5.067969e-03
7.584033e-02 0.000000e+00 -3.609696e-03
7.437873e-02 0.000000e+00 -2.425425e-03
7.224825e-02 0.000000e+00 -1.597099e-03
6.975904e-02 0.000000e+00 -1.131227e-03
6.716191e-02 0.000000e+00 -9.778291e-04
6.465555e-02 0.000000e+00 -1.017539e-03
6.237829e-02 0.000000e+00 -1.103625e-03
6.038024e-02 0.000000e+00 -1.133928e-03
5.862352e-02 0.000000e+00 -1.081689e-03
5.701593e-02 0.000000e+00 -9.528877e-04
5.545184e-02 0.000000e+00 -7.917624e-04
5.384154e-02 0.000000e+00 -6.490422e-04
5.219606e-02 0.000000e+00 -5.985388e-04
5.058531e-02 0.000000e+00 -6.702360e-04
4.914977e-02 0.000000e+00 -8.509037e-04
4.801845e-02 0.000000e+00 -1.126375e-03
4.734381e-02 0.000000e+00 -1.352020e-03
4.703007e-02 0.000000e+00 -1.443420e-03
4.680915e-02 0.000000e+00 -1.204245e-03
4.620364e-02 0.000000e+00 -5.591687e-04
4.497825e-02 0.000000e+00 1.972611e-04
4.269736e-02 0.000000e+00 2.038266e-03
3.915368e-02 0.000000e+00 2.675258e-03
3.426030e-02 0.000000e+00 7.253464e-03
2.681366e-02 0.000000e+00 8.276920e-03
1.720003e-02 0.000000e+00 2.317793e-02
0.000000e+00 0.000000e+00 4.259552e-02
0.000000e+00 1.095754e-14 -1.496046e-02
2.274785e-03 3.333063e-14 -1.278078e-02
6.458957e-03 5.555398e-14 -1.056100e-02
1.157461e-02 1.324919e-13 -1.031478e-02
1.776023e-02 1.009371e-13 -1.050928e-02
2.517932e-02 1.295773e-13 -1.119767e-02
3.365286e-02 3.414010e-14 -1.173962e-02
4.273630e-02 -9.122097e-14 -1.196512e-02
5.176557e-02 -1.426656e-13 -1.168621e-02
6.001856e-02 -1.596948e-13 -1.093555e-02
6.687594e-02 -1.036246e-13 -9.764067e-03
7.191555e-02 -4.453585e-14 -8.291862e-03
7.502071e-02 2.536545e-14 -6.672637e-03
7.622856e-02 7.537347e-14 -5.067969e-03
7.584033e-02 8.189249e-14 -3.609696e-03
7.437873e-02 5.914867e-14 -2.425425e-03
7.224825e-02 5.422018e-14 -1.597099e-03
6.975904e-02 -2.300622e-14 -1.131227e-03
6.716191e-02 -4.321690e-14 -9.778291e-04
6.465555e-02 -1.328303e-13 -1.017539e-03
6.237829e-02 -1.122598e-13 -1.103625e-03
6.038024e-02 -1.115818e-13 -1.133928e-03
5.862352e-02 -4.015042e-14 -1.081689e-03
5.701593e-02 8.199300e-15 -9.528877e-04
5.545184e-02 -4.131106e-15 -7.917624e-04
5.384154e-02 -2.020624e-14 -6.490422e-04
5.219606e-02 -1.396305e-13 -5.985388e-04
5.058531e-02 -2.736495e-13 -6.702360e-04
4.914977e-02 -4.471358e-13 -8.509037e-04
4.801845e-02 -5.153425e-13 -1.126375e-03
4.734381e-02 -4.211230e-13 -1.352020e-03
4.703007e-02 -6.818936e-14 -1.443420e-03
4.680915e-02 2.176383e-13 -1.204245e-03
4.620364e-02 4.155244e-13 -5.591687e-04
4.497825e-02 1.993802e-13 1.972611e-04
4.269736e-02 1.038485e-13 2.038266e-03
3.915368e-02 -1.684891e-13 2.675258e-03
3.426030e-02 -1.352513e-13 7.253464e-03
2.681366e-02 -3.479122e-13 8.276920e-03
1.720003e-02 -2.183785e-13 2.317793e-02
0.000000e+00 -3.599607e-13 4.259552e-02
0.000000e+00 6.494844e-15 -1.496046e-02
2.274785e-03 2.511453e-14 -1.278078e-02
6.458957e-03 4.604887e-14 -1.056100e-02
1.157461e-02 1.583686e-13 -1.031478e-02
1.776023e-02 1.221120e-13 -1.050928e-02
2.517932e-02 1.652437e-13 -1.119767e-02
3.365286e-02 5.570489e-14 -1.173962e-02
4.273630e-02 -1.210997e-13 -1.196512e-02
5.176557e-02 -1.721531e-13 -1.168621e-02
6.001856e-02 -2.080207e-13 -1.093555e-02
6.687594e-02 -1.033902e-13 -9.764067e-03
7.191555e-02 -3.967725e-14 -8.291862e-03
7.502071e-02 5.065362e-14 -6.672637e-03
7.622856e-02 1.103730e-13 -5.067969e-03
7.584033e-02 1.188623e-13 -3.609696e-03
7.437873e-02 7.633227e-14 -2.425425e-03
7.224825e-02 9.939227e-14 -1.597099e-03
6.975904e-02 -2.137308e-14 -1.131227e-03
6.716191e-02 -6.408543e-15 -9.778291e-04
6.465555e-02 -1.414551e-13 -1.017539e-03
6.237829e-02 -8.252541e-14 -1.103625e-03
6.038024e-02 -9.848857e-14 -1.133928e-03
5.862352e-02 3.063738e-14 -1.081689e-03
5.701593e-02 1.056290e-13 -9.528877e-04
5.545184e-02 9.533341e-14 -7.917624e-04
5.384154e-02 1.066294e-13 -6.490422e-04
5.219606e-02 3.370653e-14 -5.985388e-04
5.058531e-02 -1.187054e-13 -6.702360e-04
4.914977e-02 -3.461713e-13 -8.509037e-04
4.801845e-02 -5.327616e-13 -1.126375e-03
4.734381e-02 -6.346524e-13 -1.352020e-03
4.703007e-02 -3.948316e-13 -1.443420e-03
4.680915e-02 -1.473591e-13 -1.204245e-03
4.620364e-02 2.054193e-13 -5.591687e-04
4.497825e-02 1.111687e-13 1.972611e-04
4.269736e-02 5.578859e-14 2.038266e-03
3.915368e-02 -1.570317e-13 2.675258e-03
3.426030e-02 -1.624289e-13 7.253464e-03
2.681366e-02 -2.987633e-13 8.276920e-03
1.720003e-02 -2.246606e-13 2.317793e-02
0.000000e+00 -4.434007e-13 4.259552e-02
0.000000e+00 -7.039858e-15 -1.496046e-02
2.274785e-03 1.042349e-14 -1.278078e-02
6.458957e-03 1.278449e-14 -1.056100e-02
1.157461e-02 8.759420e-14 -1.031478e-02
1.776023e-02 4.705641e-14 -1.050928e-02
2.517932e-02 9.619081e-14 -1.119767e-02
3.365286e-02 4.711085e-14 -1.173962e-02
4.273630e-02 -6.249009e-14 -1.196512e-02
5.176557e-02 -7.443867e-14 -1.168621e-02
6.001856e-02 -1.031205e-13 -1.093555e-02
6.687594e-02 -1.669266e-14 -9.764067e-03
7.191555e-02 1.214831e-14 -8.291862e-03
7.502071e-02 5.886571e-14 -6.672637e-03
7.622856e-02 1.009120e-13 -5.067969e-03
7.584033e-02 1.031714e-13 -3.609696e-03
7.437873e-02 6.085572e-14 -2.425425e-03
7.224825e-02 1.116770e-13 -1.597099e-03
6.975904e-02 -1.579865e-15 -1.131227e-03
6.716191e-02 4.957860e-14 -9.778291e-04
6.465555e-02 -8.698083e-14 -1.017539e-03
6.237829e-02 -1.565822e-14 -1.103625e-03
6.038024e-02 -3.866011e-14 -1.133928e-03
5.862352e-02 9.366438e-14 -1.081689e-03
5.701593e-02 1.839514e-13 -9.528877e-04
5.545184e-02 1.833667e-13 -7.917624e-04
5.384154e-02 2.441544e-13 -6.490422e-04
5.219606e-02 2.225237e-13 -5.985388e-04
5.058531e-02 1.461507e-13 -6.702360e-04
4.914977e-02 -5.362314e-14 -8.509037e-04
4.801845e-02 -2.788481e-13 -1.126375e-03
4.734381e-02 -6.107677e-13 -1.352020e-03
4.703007e-02 -6.448156e-13 -1.443420e-03
4.680915e-02 -5.749869e-13 -1.204245e-03
4.620364e-02 -1.549206e-13 -5.591687e-04
4.497825e-02 -1.127452e-13 1.972611e-04
4.269736e-02 -2.374390e-15 2.038266e-03
3.915368e-02 -1.540889e-13 2.675258e-03
3.426030e-02 -7.295588e-14 7.253464e-03
2.681366e-02 -2.437253e-13 8.276920e-03
1.720003e-02 -4.007883e-14 2.317793e-02
0.000000e+00 -4.094999e-13 4.259552e-02
0.000000e+00 -4.288221e-14 -1.496046e-02
2.274785e-03 -2.287813e-14 -1.278078e-02
6.458957e-03 -1.011446e-14 -1.056100e-02
1.157461e-02 1.827086e-14 -1.031478e-02
1.776023e-02 -1.352896e-14 -1.050928e-02
2.517932e-02 1.172389e-14 -1.119767e-02
3.365286e-02 3.064196e-14 -1.173962e-02
4.273630e-02 6.449606e-15 -1.196512e-02
5.176557e-02 4.906447e-14 -1.168621e-02
6.001856e-02 2.896422e-14 -1.093555e-02
6.687594e-02 8.552100e-14 -9.764067e-03
7.191555e-02 6.727892e-14 -8.291862e-03
7.502071e-02 6.753430e-14 -6.672637e-03
7.622856e-02 7.614686e-14 -5.067969e-03
7.584033e-02 7.279548e-14 -3.609696e-03
7.437873e-02 3.326392e-14 -2.425425e-03
7.224825e-02 8.309840e-14 -1.597099e-03
6.975904e-02 -1.567636e-14 -1.131227e-03
6.716191e-02 3.564638e-14 -9.778291e-04
6.465555e-02 -8.870808e-14 -1.017539e-03
6.237829e-02 -3.020760e-14 -1.103625e-03
6.038024e-02 -6.947693e-14 -1.133928e-03
5.862352e-02 5.138650e-14 -1.081689e-03
5.701593e-02 1.233767e-13 -9.528877e-04
5.545184e-02 1.334909e-13 -7.917624e-04
5.384154e-02 1.759867e-13 -6.490422e-04
5.219606e-02 1.570856e-13 -5.985388e-04
5.058531e-02 5.918844e-14 -6.702360e-04
4.914977e-02 -1.005030e-13 -8.509037e-04
4.801845e-02 -2.805645e-13 -1.126375e-03
4.734381e-02 -4.886322e-13 -1.352020e-03
4.703007e-02 -4.848458e-13 -1.443420e-03
4.680915e-02 -4.207733e-13 -1.204245e-03
4.620364e-02 -1.045678e-13 -5.591687e-04
4.497825e-02 -9.719186e-14 1.972611e-04
4.269736e-02 -1.457976e-14 2.038266e-03
3.915368e-02 -1.301045e-13 2.675258e-03
3.426030e-02 -7.611170e-14 7.253464e-03
2.681366e-02 -1.871395e-13 8.276920e-03
1.720003e-02 -5.606168e-14 2.317793e-02
0.000000e+00 -3.081266e-13 4.259552e-02
0.000000e+00 -4.224026e-14 -1.496046e-02
2.274785e-03 -3.172438e-14 -1.278078e-02
6.458957e-03 -3.265133e-14 -1.056100e-02
1.157461e-02 -5.065459e-15 -1.031478e-02
1.776023e-02 -2.868798e-14 -1.050928e-02
2.517932e-02 -2.865052e-15 -1.119767e-02
3.365286e-02 1.906510e-14 -1.173962e-02
4.273630e-02 3.563946e-14 -1.196512e-02
5.176557e-02 7.323115e-14 -1.168621e-02