# vtk DataFile Version 3.0
vtk output
ASCII
DATASET UNSTRUCTURED_GRID
POINTS 11767 float
0.000000e+00 0.000000e+00 0.000000e+00
1.460000e-02 0.000000e+00 0.000000e+00
2.920000e-02 0.000000e+00 0.000000e+00
4.380000e-02 0.000000e+00 0.000000e+00
5.840000e-02 0.000000e+00 0.000000e+00
7.300000e-02 0.000000e+00 0.000000e+00
8.760000e-02 0.000000e+00 0.000000e+00
1.022000e-01 0.000000e+00 0.000000e+00
1.168000e-01 0.000000e+00 0.000000e+00
1.314000e-01 0.000000e+00 0.000000e+00
1.460000e-01 0.000000e+00 0.000000e+00
1.606000e-01 0.000000e+00 0.000000e+00
1.752000e-01 0.000000e+00 0.000000e+00
1.898000e-01 0.000000e+00 0.000000e+00
2.044000e-01 0.000000e+00 0.000000e+00
2.190000e-01 0.000000e+00 0.000000e+00
2.336000e-01 0.000000e+00 0.000000e+00
2.482000e-01 0.000000e+00 0.000000e+00
2.628000e-01 0.000000e+00 0.000000e+00
2.774000e-01 0.000000e+00 0.000000e+00
2.920000e-01 0.000000e+00 0.000000e+00
3.066000e-01 0.000000e+00 0.000000e+00
3.212000e-01 0.000000e+00 0.000000e+00
3.358000e-01 0.000000e+00 0.000000e+00
3.504000e-01 0.000000e+00 0.000000e+00
3.650000e-01 0.000000e+00 0.000000e+00
3.796000e-01 0.000000e+00 0.000000e+00
3.942000e-01 0.000000e+00 0.000000e+00
4.088000e-01 0.000000e+00 0.000000e+00
4.234000e-01 0.000000e+00 0.000000e+00
4.380000e-01 0.000000e+00 0.000000e+00
4.526000e-01 0.000000e+00 0.000000e+00
4.672000e-01 0.000000e+00 0.000000e+00
4.818000e-01 0.000000e+00 0.000000e+00
4.964000e-01 0.000000e+00 0.000000e+00
5.110000e-01 0.000000e+00 0.000000e+00
5.256000e-01 0.000000e+00 0.000000e+00
5.402000e-01 0.000000e+00 0.000000e+00
5.548000e-01 0.000000e+00 0.000000e+00
5.694000e-01 0.000000e+00 0.000000e+00
5.840000e-01 0.000000e+00 0.000000e+00
0.000000e+00 1.460000e-02 0.000000e+00
1.460000e-02 1.460000e-02 0.000000e+00
2.920000e-02 1.460000e-02 0.000000e+00
4.380000e-02 1.460000e-02 0.000000e+00
5.840000e-02 1.460000e-02 0.000000e+00
7.300000e-02 1.460000e-02 0.000000e+00
8.760000e-02 1.460000e-02 0.000000e+00
1.022000e-01 1.460000e-02 0.000000e+00
1.168000e-01 1.460000e-02 0.000000e+00
1.314000e-01 1.460000e-02 0.000000e+00
1.460000e-01 1.460000e-02 0.000000e+00
1.606000e-01 1.460000e-02 0.000000e+00
1.752000e-01 1.460000e-02 0.000000e+00
1.898000e-01 1.460000e-02 0.000000e+00
2.044000e-01 1.460000e-02 0.000000e+00
2.190000e-01 1.460000e-02 0.000000e+00
2.336000e-01 1.460000e-02 0.000000e+00
2.482000e-01 1.460000e-02 0.000000e+00
2.628000e-01 1.460000e-02 0.000000e+00
2.774000e-01 1.460000e-02 0.000000e+00
2.920000e-01 1.460000e-02 0.000000e+00
3.066000e-01 1.460000e-02 0.000000e+00
3.212000e-01 1.460000e-02 0.000000e+00
3.358000e-01 1.460000e-02 0.000000e+00
3.504000e-01 1.460000e-02 0.000000e+00
3.650000e-01 1.460000e-02 0.000000e+00
3.796000e-01 1.460000e-02 0.000000e+00
3.942000e-01 1.460000e-02 0.000000e+00
4.088000e-01 1.460000e-02 0.000000e+00
4.234000e-01 1.460000e-02 0.000000e+00
4.380000e-01 1.460000e-02 0.000000e+00
4.526000e-01 1.460000e-02 0.000000e+00
4.672000e-01 1.460000e-02 0.000000e+00
4.818000e-01 1.460000e-02 0.000000e+00
4.964000e-01 1.460000e-02 0.000000e+00
5.110000e-01 1.460000e-02 0.000000e+00
5.256000e-01 1.460000e-02 0.000000e+00
5.402000e-01 1.460000e-02 0.000000e+00
5.548000e-01 1.460000e-02 0.000000e+00
5.694000e-01 1.460000e-02 0.000000e+00
5.840000e-01 1.460000e-02 0.000000e+00
0.000000e+00 2.920000e-02 0.000000e+00
1.460000e-02 2.920000e-02 0.000000e+00
2.920000e-02 2.920000e-02 0.000000e+00
4.380000e-02 2.920000e-02 0.000000e+00
5.840000e-02 2.920000e-02 0.000000e+00
7.300000e-02 2.920000e-02 0.000000e+00
8.760000e-02 2.920000e-02 0.000000e+00
1.022000e-01 2.920000e-02 0.000000e+00
1.168000e-01 2.920000e-02 0.000000e+00
1.314000e-01 2.920000e-02 0.000000e+00
1.460000e-01 2.920000e-02 0.000000e+00
1.606000e-01 2.920000e-02 0.000000e+00
1.752000e-01 2.920000e-02 0.000000e+00
1.898000e-01 2.920000e-02 0.000000e+00
2.044000e-01 2.920000e-02 0.000000e+00
2.190000e-01 2.920000e-02 0.000000e+00
2.336000e-01 2.920000e-02 0.000000e+00
2.482000e-01 2.920000e-02 0.000000e+00
2.628000e-01 2.920000e-02 0.000000e+00
2.774000e-01 2.920000e-02 0.000000e+00
2.920000e-01 2.920000e-02 0.000000e+00
3.066000e-01 2.920000e-02 0.000000e+00
3.212000e-01 2.920000e-02 0.000000e+00
3.358000e-01 2.920000e-02 0.000000e+00
3.504000e-01 2.920000e-02 0.000000e+00
3.650000e-01 2.920000e-02 0.000000e+00
3.796000e-01 2.920000e-02 0.000000e+00
3.942000e-01 2.920000e-02 0.000000e+00
4.088000e-01 2.920000e-02 0.000000e+00
4.234000e-01 2.920000e-02 0.000000e+00
4.380000e-01 2.920000e-02 0.000000e+00
4.526000e-01 2.920000e-02 0.000000e+00
4.672000e-01 2.920000e-02 0.000000e+00
4.818000e-01 2.920000e-02 0.000000e+00
4.964000e-01 2.920000e-02 0.000000e+00
5.110000e-01 2.920000e-02 0.000000e+00
5.256000e-01 2.920000e-02 0.000000e+00
5.402000e-01 2.920000e-02 0.000000e+00
5.548000e-01 2.920000e-02 0.000000e+00
5.694000e-01 2.920000e-02 0.000000e+00
5.840000e-01 2.920000e-02 0.000000e+00
0.000000e+00 4.380000e-02 0.000000e+00
1.460000e-02 4.380000e-02 0.000000e+00
2.920000e-02 4.380000e-02 0.000000e+00
4.380000e-02 4.380000e-02 0.000000e+00
5.840000e-02 4.380000e-02 0.000000e+00
7.300000e-02 4.380000e-02 0.000000e+00
8.760000e-02 4.380000e-02 0.000000e+00
1.022000e-01 4.380000e-02 0.000000e+00
1.168000e-01 4.380000e-02 0.000000e+00
1.314000e-01 4.380000e-02 0.000000e+00
1.460000e-01 4.380000e-02 0.000000e+00
1.606000e-01 4.380000e-02 0.000000e+00
1.752000e-01 4.380000e-02 0.000000e+00
1.898000e-01 4.380000e-02 0.000000e+00
2.044000e-01 4.380000e-02 0.000000e+00
2.190000e-01 4.380000e-02 0.000000e+00
2.336000e-01 4.380000e-02 0.000000e+00
2.482000e-01 4.380000e-02 0.000000e+00
2.628000e-01 4.380000e-02 0.000000e+00
2.774000e-01 4.380000e-02 0.000000e+00
2.920000e-01 4.380000e-02 0.000000e+00
3.066000e-01 4.380000e-02 0.000000e+00
3.212000e-01 4.380000e-02 0.000000e+00
3.358000e-01 4.380000e-02 0.000000e+00
3.504000e-01 4.380000e-02 0.000000e+00
3.650000e-01 4.380000e-02 0.000000e+00
3.796000e-01 4.380000e-02 0.000000e+00
3.942000e-01 4.380000e-02 0.000000e+00
4.088000e-01 4.380000e-02 0.000000e+00
4.234000e-01 4.380000e-02 0.000000e+00
4.380000e-01 4.380000e-02 0.000000e+00
4.526000e-01 4.380000e-02 0.000000e+00
4.672000e-01 4.380000e-02 0.000000e+00
4.818000e-01 4.380000e-02 0.000000e+00
4.964000e-01 4.380000e-02 0.000000e+00
5.110000e-01 4.380000e-02 0.000000e+00
5.256000e-01 4.380000e-02 0.000000e+00
5.402000e-01 4.380000e-02 0.000000e+00
5.548000e-01 4.380000e-02 0.000000e+00
5.694000e-01 4.380000e-02 0.000000e+00
5.840000e-01 4.380000e-02 0.000000e+00
0.000000e+00 5.840000e-02 0.000000e+00
1.460000e-02 5.840000e-02 0.000000e+00
2.920000e-02 5.840000e-02 0.000000e+00
4.380000e-02 5.840000e-02 0.000000e+00
5.840000e-02 5.840000e-02 0.000000e+00
7.300000e-02 5.840000e-02 0.000000e+00
8.760000e-02 5.840000e-02 0.000000e+00
1.022000e-01 5.840000e-02 0.000000e+00
1.168000e-01 5.840000e-02 0.000000e+00
1.314000e-01 5.840000e-02 0.000000e+00
1.460000e-01 5.840000e-02 0.000000e+00
1.606000e-01 5.840000e-02 0.000000e+00
1.752000e-01 5.840000e-02 0.000000e+00
1.898000e-01 5.840000e-02 0.000000e+00
2.044000e-01 5.840000e-02 0.000000e+00
2.190000e-01 5.840000e-02 0.000000e+00
2.336000e-01 5.840000e-02 0.000000e+00
2.482000e-01 5.840000e-02 0.000000e+00
2.628000e-01 5.840000e-02 0.000000e+00
2.774000e-01 5.840000e-02 0.000000e+00
2.920000e-01 5.840000e-02 0.000000e+00
3.066000e-01 5.840000e-02 0.000000e+00
3.212000e-01 5.840000e-02 0.000000e+00
3.358000e-01 5.840000e-02 0.000000e+00
3.504000e-01 5.840000e-02 0.000000e+00
3.650000e-01 5.840000e-02 0.000000e+00
3.796000e-01 5.840000e-02 0.000000e+00
3.942000e-01 5.840000e-02 0.000000e+00
4.088000e-01 5.840000e-02 0.000000e+00
4.234000e-01 5.840000e-02 0.000000e+00
4.380000e-01 5.840000e-02 0.000000e+00
4.526000e-01 5.840000e-02 0.000000e+00
4.672000e-01 5.840000e-02 0.000000e+00
4.818000e-01 5.840000e-02 0.000000e+00
4.964000e-01 5.840000e-02 0.000000e+00
5.110000e-01 5.840000e-02 0.000000e+00
5.256000e-01 5.840000e-02 0.000000e+00
5.402000e-01 5.840000e-02 0.000000e+00
5.548000e-01 5.840000e-02 0.000000e+00
5.694000e-01 5.840000e-02 0.000000e+00
5.840000e-01 5.840000e-02 0.000000e+00
0.000000e+00 7.300000e-02 0.000000e+00
1.460000e-02 7.300000e-02 0.000000e+00
2.920000e-02 7.300000e-02 0.000000e+00
4.380000e-02 7.300000e-02 0.000000e+00
5.840000e-02 7.300000e-02 0.000000e+00
7.300000e-02 7.300000e-02 0.000000e+00
8.760000e-02 7.300000e-02 0.000000e+00
1.022000e-01 7.300000e-02 0.000000e+00
1.168000e-01 7.300000e-02 0.000000e+00
1.314000e-01 7.300000e-02 0.000000e+00
1.460000e-01 7.300000e-02 0.000000e+00
1.606000e-01 7.300000e-02 0.000000e+00
1.752000e-01 7.300000e-02 0.000000e+00
1.898000e-01 7.300000e-02 0.000000e+00
2.044000e-01 7.300000e-02 0.000000e+00
2.190000e-01 7.300000e-02 0.000000e+00
2.336000e-01 7.300000e-02 0.000000e+00
2.482000e-01 7.300000e-02 0.000000e+00
2.628000e-01 7.300000e-02 0.000000e+00
2.774000e-01 7.300000e-02 0.000000e+00
2.920000e-01 7.300000e-02 0.000000e+00
3.066000e-01 7.300000e-02 0.000000e+00
3.212000e-01 7.300000e-02 0.000000e+00
3.358000e-01 7.300000e-02 0.000000e+00
3.504000e-01 7.300000e-02 0.000000e+00
3.650000e-01 7.300000e-02 0.000000e+00
3.796000e-01 7.300000e-02 0.000000e+00
3.942000e-01 7.300000e-02 0.000000e+00
4.088000e-01 7.300000e-02 0.000000e+00
4.234000e-01 7.300000e-02 0.000000e+00
4.380000e-01 7.300000e-02 0.000000e+00
4.526000e-01 7.300000e-02 0.000000e+00
4.672000e-01 7.300000e-02 0.000000e+00
4.818000e-01 7.300000e-02 0.000000e+00
4.964000e-01 7.300000e-02 0.000000e+00
5.110000e-01 7.300000e-02 0.000000e+00
5.256000e-01 7.300000e-02 0.000000e+00
5.402000e-01 7.300000e-02 0.000000e+00
5.548000e-01 7.300000e-02 0.000000e+00
5.694000e-01 7.300000e-02 0.000000e+00
5.840000e-01 7.300000e-02 0.000000e+00
0.000000e+00 8.760000e-02 0.000000e+00
1.460000e-02 8.760000e-02 0.000000e+00
2.920000e-02 8.760000e-02 0.000000e+00
4.380000e-02 8.760000e-02 0.000000e+00
5.840000e-02 8.760000e-02 0.000000e+00
7.300000e-02 8.760000e-02 0.000000e+00
8.760000e-02 8.760000e-02 0.000000e+00
1.022000e-01 8.760000e-02 0.000000e+00
[...]
POINT_DATA 11767
VECTORS Velocity float
0.000000e+00 0.000000e+00 0.000000e+00
5.322741e-02 0.000000e+00 0.000000e+00
9.213939e-02 0.000000e+00 0.000000e+00
1.284236e-01 0.000000e+00 0.000000e+00
1.635961e-01 0.000000e+00 0.000000e+00
1.994592e-01 0.000000e+00 0.000000e+00
2.357040e-01 0.000000e+00 0.000000e+00
2.724408e-01 0.000000e+00 0.000000e+00
3.092930e-01 0.000000e+00 0.000000e+00
3.462078e-01 0.000000e+00 0.000000e+00
3.829172e-01 0.000000e+00 0.000000e+00
4.194783e-01 0.000000e+00 0.000000e+00
4.557806e-01 0.000000e+00 0.000000e+00
4.918484e-01 0.000000e+00 0.000000e+00
5.275242e-01 0.000000e+00 0.000000e+00
5.627837e-01 0.000000e+00 0.000000e+00
5.974664e-01 0.000000e+00 0.000000e+00
6.313745e-01 0.000000e+00 0.000000e+00
6.644278e-01 0.000000e+00 0.000000e+00
6.961794e-01 0.000000e+00 0.000000e+00
7.266415e-01 0.000000e+00 0.000000e+00
7.549328e-01 0.000000e+00 0.000000e+00
7.812696e-01 0.000000e+00 0.000000e+00
8.042336e-01 0.000000e+00 0.000000e+00
8.240989e-01 0.000000e+00 0.000000e+00
8.389071e-01 0.000000e+00 0.000000e+00
8.487937e-01 0.000000e+00 0.000000e+00
8.515303e-01 0.000000e+00 0.000000e+00
8.467357e-01 0.000000e+00 0.000000e+00
8.326275e-01 0.000000e+00 0.000000e+00
8.080270e-01 0.000000e+00 0.000000e+00
7.734699e-01 0.000000e+00 0.000000e+00
7.270321e-01 0.000000e+00 0.000000e+00
6.736082e-01 0.000000e+00 0.000000e+00
6.074766e-01 0.000000e+00 0.000000e+00
5.404566e-01 0.000000e+00 0.000000e+00
4.551813e-01 0.000000e+00 0.000000e+00
3.792918e-01 0.000000e+00 0.000000e+00
2.680430e-01 0.000000e+00 0.000000e+00
1.864404e-01 0.000000e+00 0.000000e+00
0.000000e+00 0.000000e+00 0.000000e+00
0.000000e+00 2.463004e-15 0.000000e+00
5.322741e-02 3.045572e-14 0.000000e+00
9.213939e-02 1.508188e-14 0.000000e+00
1.284236e-01 5.702324e-15 0.000000e+00
1.635961e-01 -7.324876e-15 0.000000e+00
1.994592e-01 7.399259e-15 0.000000e+00
2.357040e-01 -6.954281e-15 0.000000e+00
2.724408e-01 5.922346e-15 0.000000e+00
3.092930e-01 -1.022552e-14 0.000000e+00
3.462078e-01 -7.843194e-15 0.000000e+00
3.829172e-01 -3.266307e-15 0.000000e+00
4.194783e-01 -2.501507e-15 0.000000e+00
4.557806e-01 2.697579e-15 0.000000e+00
4.918484e-01 -1.241553e-15 0.000000e+00
5.275242e-01 5.004698e-16 0.000000e+00
5.627837e-01 9.414591e-16 0.000000e+00
5.974664e-01 -1.991108e-15 0.000000e+00
6.313745e-01 3.767482e-15 0.000000e+00
6.644278e-01 -3.225949e-15 0.000000e+00
6.961794e-01 -1.471276e-15 0.000000e+00
7.266415e-01 -1.461718e-15 0.000000e+00
7.549328e-01 2.816105e-15 0.000000e+00
7.812696e-01 -7.642018e-16 0.000000e+00
8.042336e-01 1.017820e-15 0.000000e+00
8.240989e-01 -3.175919e-15 0.000000e+00
8.389071e-01 3.174588e-15 0.000000e+00
8.487937e-01 -2.456791e-15 0.000000e+00
8.515303e-01 4.468664e-15 0.000000e+00
8.467357e-01 -4.269029e-15 0.000000e+00
8.326275e-01 3.435889e-16 0.000000e+00
8.080270e-01 -6.055580e-15 0.000000e+00
7.734699e-01 -6.131009e-15 0.000000e+00
7.270321e-01 -9.749643e-15 0.000000e+00
6.736082e-01 -7.556854e-16 0.000000e+00
6.074766e-01 -1.138217e-14 0.000000e+00
5.404566e-01 -1.206393e-15 0.000000e+00
4.551813e-01 -1.093995e-14 0.000000e+00
3.792918e-01 1.303071e-14 0.000000e+00
2.680430e-01 -2.014797e-14 0.000000e+00
1.864404e-01 3.163006e-14 0.000000e+00
0.000000e+00 3.687502e-14 0.000000e+00
0.000000e+00 5.816041e-15 0.000000e+00
5.322741e-02 3.858124e-15 0.000000e+00
9.213939e-02 2.948606e-14 0.000000e+00
1.284236e-01 8.176502e-15 0.000000e+00
1.635961e-01 1.302887e-15 0.000000e+00
1.994592e-01 2.608865e-15 0.000000e+00
2.357040e-01 2.419026e-15 0.000000e+00
2.724408e-01 1.984549e-15 0.000000e+00
3.092930e-01 -1.275270e-14 0.000000e+00
3.462078e-01 -1.080580e-14 0.000000e+00
3.829172e-01 -9.130043e-15 0.000000e+00
4.194783e-01 -1.721778e-15 0.000000e+00
4.557806e-01 3.949790e-15 0.000000e+00
4.918484e-01 -4.103693e-15 0.000000e+00
5.275242e-01 4.419646e-15 0.000000e+00
5.627837e-01 4.267807e-15 0.000000e+00
5.974664e-01 -6.385456e-15 0.000000e+00
6.313745e-01 6.101376e-15 0.000000e+00
6.644278e-01 1.105774e-16 0.000000e+00
6.961794e-01 -2.878753e-15 0.000000e+00
7.266415e-01 -4.717957e-15 0.000000e+00
7.549328e-01 1.704665e-15 0.000000e+00
7.812696e-01 5.329765e-16 0.000000e+00
8.042336e-01 -4.545537e-15 0.000000e+00
8.240989e-01 -3.607801e-15 0.000000e+00
8.389071e-01 3.249143e-15 0.000000e+00
8.487937e-01 -5.656150e-16 0.000000e+00
8.515303e-01 1.981427e-15 0.000000e+00
8.467357e-01 -6.591041e-15 0.000000e+00
8.326275e-01 -4.455908e-15 0.000000e+00
8.080270e-01 -6.308858e-15 0.000000e+00
7.734699e-01 -9.052029e-15 0.000000e+00
7.270321e-01 -7.097093e-15 0.000000e+00
6.736082e-01 -5.236805e-15 0.000000e+00
6.074766e-01 4.137333e-15 0.000000e+00
5.404566e-01 -1.192135e-14 0.000000e+00
4.551813e-01 -2.901894e-15 0.000000e+00
3.792918e-01 1.049361e-14 0.000000e+00
2.680430e-01 -1.419629e-14 0.000000e+00
1.864404e-01 1.954758e-14 0.000000e+00
0.000000e+00 -1.739253e-14 0.000000e+00
0.000000e+00 5.512108e-14 0.000000e+00
5.322741e-02 -3.946659e-15 0.000000e+00
9.213939e-02 2.220765e-14 0.000000e+00
1.284236e-01 1.872512e-14 0.000000e+00
1.635961e-01 1.935716e-15 0.000000e+00
1.994592e-01 1.644389e-15 0.000000e+00
2.357040e-01 -1.977716e-15 0.000000e+00
2.724408e-01 5.568776e-15 0.000000e+00
3.092930e-01 -1.015434e-14 0.000000e+00
3.462078e-01 -1.041493e-14 0.000000e+00
3.829172e-01 -5.496516e-15 0.000000e+00
4.194783e-01 -1.093531e-15 0.000000e+00
4.557806e-01 6.265921e-15 0.000000e+00
4.918484e-01 -3.966253e-15 0.000000e+00
5.275242e-01 6.930191e-15 0.000000e+00
5.627837e-01 2.358810e-15 0.000000e+00
5.974664e-01 -3.230155e-15 0.000000e+00
6.313745e-01 7.558726e-15 0.000000e+00
6.644278e-01 5.038428e-15 0.000000e+00
6.961794e-01 -4.271900e-15 0.000000e+00
7.266415e-01 -3.848566e-15 0.000000e+00
7.549328e-01 1.321369e-15 0.000000e+00
7.812696e-01 -8.911581e-16 0.000000e+00
8.042336e-01 -5.347021e-15 0.000000e+00
8.240989e-01 -3.756145e-15 0.000000e+00
8.389071e-01 4.653181e-15 0.000000e+00
8.487937e-01 -4.626447e-15 0.000000e+00
8.515303e-01 4.444568e-15 0.000000e+00
8.467357e-01 -6.923178e-15 0.000000e+00
8.326275e-01 -4.829733e-15 0.000000e+00
8.080270e-01 -9.365126e-15 0.000000e+00
7.734699e-01 -5.445976e-15 0.000000e+00
7.270321e-01 -9.174830e-15 0.000000e+00
6.736082e-01 2.046869e-16 0.000000e+00
6.074766e-01 5.108864e-17 0.000000e+00
5.404566e-01 -8.607438e-15 0.000000e+00
4.551813e-01 -5.222886e-15 0.000000e+00
3.792918e-01 1.544433e-14 0.000000e+00
2.680430e-01 -2.625363e-14 0.000000e+00
1.864404e-01 3.315276e-14 0.000000e+00
0.000000e+00 2.135027e-14 0.000000e+00
0.000000e+00 2.600662e-14 0.000000e+00
5.322741e-02 -4.334018e-15 0.000000e+00
9.213939e-02 2.677667e-14 0.000000e+00
1.284236e-01 3.918544e-15 0.000000e+00
1.635961e-01 2.302911e-15 0.000000e+00
1.994592e-01 -4.863030e-16 0.000000e+00
2.357040e-01 -4.981357e-15 0.000000e+00
2.724408e-01 1.017297e-14 0.000000e+00
3.092930e-01 -5.235683e-15 0.000000e+00
3.462078e-01 -1.030415e-14 0.000000e+00
3.829172e-01 -6.920245e-15 0.000000e+00
4.194783e-01 -7.852759e-15 0.000000e+00
4.557806e-01 5.187861e-15 0.000000e+00
4.918484e-01 -7.220301e-16 0.000000e+00
5.275242e-01 4.879779e-15 0.000000e+00
5.627837e-01 6.653250e-16 0.000000e+00
5.974664e-01 -1.837588e-15 0.000000e+00
6.313745e-01 4.963567e-15 0.000000e+00
6.644278e-01 4.557827e-15 0.000000e+00
6.961794e-01 -1.174243e-15 0.000000e+00
7.266415e-01 -5.287689e-15 0.000000e+00
7.549328e-01 3.283466e-16 0.000000e+00
7.812696e-01 8.740536e-17 0.000000e+00
8.042336e-01 -2.783678e-15 0.000000e+00
8.240989e-01 -3.469103e-15 0.000000e+00
8.389071e-01 2.608706e-15 0.000000e+00
8.487937e-01 -2.737329e-15 0.000000e+00
8.515303e-01 1.398986e-15 0.000000e+00
8.467357e-01 -3.163022e-15 0.000000e+00
8.326275e-01 -5.325779e-15 0.000000e+00
8.080270e-01 -3.204480e-15 0.000000e+00
7.734699e-01 -9.197960e-15 0.000000e+00
7.270321e-01 -7.139121e-15 0.000000e+00
6.736082e-01 -2.390731e-15 0.000000e+00
6.074766e-01 3.313057e-15 0.000000e+00
5.404566e-01 -5.106610e-15 0.000000e+00
4.551813e-01 1.033099e-15 0.000000e+00
3.792918e-01 8.720591e-15 0.000000e+00
2.680430e-01 -1.475908e-14 0.000000e+00
1.864404e-01 1.155855e-14 0.000000e+00
0.000000e+00 -3.334237e-14 0.000000e+00
0.000000e+00 -5.519998e-14 0.000000e+00
5.322741e-02 -2.359053e-14 0.000000e+00
9.213939e-02 6.449842e-15 0.000000e+00
1.284236e-01 -1.065010e-14 0.000000e+00
1.635961e-01 -1.159069e-14 0.000000e+00
1.994592e-01 2.970592e-15 0.000000e+00
2.357040e-01 -8.106438e-15 0.000000e+00
2.724408e-01 -1.082115e-15 0.000000e+00
3.092930e-01 -5.787937e-15 0.000000e+00
3.462078e-01 -8.747702e-15 0.000000e+00
3.829172e-01 -1.116762e-14 0.000000e+00
4.194783e-01 -3.316601e-15 0.000000e+00
4.557806e-01 -1.549192e-15 0.000000e+00
4.918484e-01 2.266226e-16 0.000000e+00
5.275242e-01 -1.146601e-15 0.000000e+00
5.627837e-01 6.489438e-16 0.000000e+00
5.974664e-01 -6.184790e-15 0.000000e+00
6.313745e-01 4.688845e-15 0.000000e+00
6.644278e-01 1.059646e-15 0.000000e+00
6.961794e-01 -1.071532e-15 0.000000e+00
7.266415e-01 -6.732023e-15 0.000000e+00
7.549328e-01 1.571361e-15 0.000000e+00
7.812696e-01 -1.260560e-15 0.000000e+00
8.042336e-01 -1.512300e-15 0.000000e+00
8.240989e-01 -5.781442e-15 0.000000e+00
8.389071e-01 2.980502e-15 0.000000e+00
8.487937e-01 -4.335206e-15 0.000000e+00
8.515303e-01 2.924070e-15 0.000000e+00
8.467357e-01 -3.632172e-15 0.000000e+00
8.326275e-01 -2.486269e-15 0.000000e+00
8.080270e-01 -6.576803e-15 0.000000e+00
7.734699e-01 -6.890990e-16 0.000000e+00
7.270321e-01 -8.339245e-15 0.000000e+00
6.736082e-01 1.324768e-15 0.000000e+00
6.074766e-01 -3.685401e-15 0.000000e+00
5.404566e-01 1.465745e-16 0.000000e+00
4.551813e-01 -1.401105e-14 0.000000e+00
3.792918e-01 8.123585e-15 0.000000e+00
2.680430e-01 -3.100006e-14 0.000000e+00
1.864404e-01 2.924075e-14 0.000000e+00
0.000000e+00 6.054526e-14 0.000000e+00
0.000000e+00 0.000000e+00 0.000000e+00
5.322741e-02 0.000000e+00 0.000000e+00
9.213939e-02 0.000000e+00 0.000000e+00
1.284236e-01 0.000000e+00 0.000000e+00
1.635961e-01 0.000000e+00 0.000000e+00
1.994592e-01 0.000000e+00 0.000000e+00
2.357040e-01 0.000000e+00 0.000000e+00
2.724408e-01 0.000000e+00 0.000000e+00
3.092930e-01 0.000000e+00 0.000000e+00
3.462078e-01 0.000000e+00 0.000000e+00
3.829172e-01 0.000000e+00 0.000000e+00
4.194783e-01 0.000000e+00 0.000000e+00
4.557806e-01 0.000000e+00 0.000000e+00
4.918484e-01 0.000000e+00 0.000000e+00
5.275242e-01 0.000000e+00 0.000000e+00
5.627837e-01 0.000000e+00 0.000000e+00
5.974664e-01 0.000000e+00 0.000000e+00
6.313745e-01 0.000000e+00 0.000000e+00
6.644278e-01 0.000000e+00 0.000000e+00
6.961794e-01 0.000000e+00 0.000000e+00
7.266415e-01 0.000000e+00 0.000000e+00
7.549328e-01 0.000000e+00 0.000000e+00
7.812696e-01 0.000000e+00 0.000000e+00
8.042336e-01 0.000000e+00 0.000000e+00
8.240989e-01 0.000000e+00 0.000000e+00
8.389071e-01 0.000000e+00 0.000000e+00
8.487937e-01 0.000000e+00 0.000000e+00
8.515303e-01 0.000000e+00 0.000000e+00
8.467357e-01 0.000000e+00 0.000000e+00
8.326275e-01 0.000000e+00 0.000000e+00
8.080270e-01 0.000000e+00 0.000000e+00
7.734699e-01 0.000000e+00 0.000000e+00
7.270321e-01 0.000000e+00 0.000000e+00
6.736082e-01 0.000000e+00 0.000000e+00
6.074766e-01 0.000000e+00 0.000000e+00
5.404566e-01 0.000000e+00 0.000000e+00
4.551813e-01 0.000000e+00 0.000000e+00
3.792918e-01 0.000000e+00 0.000000e+00
2.680430e-01 0.000000e+00 0.000000e+00
1.864404e-01 0.000000e+00 0.000000e+00
0.000000e+00 0.000000e+00 0.000000e+00
0.000000e+00 0.000000e+00 -5.133616e-02
3.326037e-02 0.000000e+00 -4.455160e-02
6.864426e-02 0.000000e+00 -3.841953e-02
1.043265e-01 0.000000e+00 -3.830609e-02
1.405898e-01 0.000000e+00 -3.821954e-02
1.773940e-01 0.000000e+00 -3.892711e-02
2.147042e-01 0.000000e+00 -3.929924e-02
2.522839e-01 0.000000e+00 -3.957114e-02
2.899616e-01 0.000000e+00 -3.962274e-02
3.276251e-01 0.000000e+00 -3.952323e-02
3.650936e-01 0.000000e+00 -3.931475e-02
4.023839e-01 0.000000e+00 -3.910332e-02
4.393850e-01 0.000000e+00 -3.882786e-02
4.760843e-01 0.000000e+00 -3.849822e-02
5.123254e-01 0.000000e+00 -3.804384e-02
5.480840e-01 0.000000e+00 -3.756270e-02
5.832274e-01 0.000000e+00 -3.682999e-02
6.175754e-01 0.000000e+00 -3.605391e-02
6.510229e-01 0.000000e+00 -3.490596e-02
6.831314e-01 0.000000e+00 -3.366227e-02
7.139036e-01 0.000000e+00 -3.187165e-02
7.425171e-01 0.000000e+00 -2.984931e-02
7.691355e-01 0.000000e+00 -2.719553e-02
7.924072e-01 0.000000e+00 -2.392723e-02
8.125687e-01 0.000000e+00 -1.998655e-02
8.276532e-01 0.000000e+00 -1.477467e-02
8.377014e-01 0.000000e+00 -9.025971e-03
8.403914e-01 0.000000e+00 -1.146250e-03
8.353124e-01 0.000000e+00 6.778064e-03
8.207975e-01 0.000000e+00 1.750280e-02
7.959151e-01 0.000000e+00 2.692633e-02
7.610698e-01 0.000000e+00 3.906653e-02
7.142147e-01 0.000000e+00 4.729690e-02
6.600640e-01 0.000000e+00 5.877734e-02
5.938032e-01 0.000000e+00 6.328951e-02
5.253877e-01 0.000000e+00 7.554401e-02
4.419048e-01 0.000000e+00 7.604459e-02
3.611150e-01 0.000000e+00 9.402652e-02
2.560718e-01 0.000000e+00 9.133218e-02
1.554355e-01 0.000000e+00 1.204013e-01
0.000000e+00 0.000000e+00 2.010989e-01
0.000000e+00 -9.368470e-15 -5.133616e-02
3.326037e-02 9.484012e-15 -4.455160e-02
6.864426e-02 -1.287780e-14 -3.841953e-02
1.043265e-01 4.020212e-15 -3.830609e-02
1.405898e-01 -3.894387e-15 -3.821954e-02
1.773940e-01 3.282709e-15 -3.892711e-02
2.147042e-01 -9.734745e-15 -3.929924e-02
2.522839e-01 6.704693e-15 -3.957114e-02
2.899616e-01 -2.582521e-16 -3.962274e-02
3.276251e-01 3.081109e-15 -3.952323e-02
3.650936e-01 1.181887e-15 -3.931475e-02
4.023839e-01 -1.134561e-16 -3.910332e-02
4.393850e-01 -4.190252e-15 -3.882786e-02
4.760843e-01 1.725037e-15 -3.849822e-02
5.123254e-01 1.837694e-15 -3.804384e-02
5.480840e-01 9.003297e-16 -3.756270e-02
5.832274e-01 -1.919939e-15 -3.682999e-02
6.175754e-01 -6.206163e-16 -3.605391e-02
6.510229e-01 -5.054175e-16 -3.490596e-02
6.831314e-01 2.084121e-15 -3.366227e-02
7.139036e-01 -2.896126e-16 -3.187165e-02
7.425171e-01 -2.466439e-15 -2.984931e-02
7.691355e-01 -1.913223e-15 -2.719553e-02
7.924072e-01 1.238846e-15 -2.392723e-02
8.125687e-01 -6.308524e-15 -1.998655e-02
8.276532e-01 -8.526577e-16 -1.477467e-02
8.377014e-01 -6.233924e-15 -9.025971e-03
8.403914e-01 9.816670e-16 -1.146250e-03
8.353124e-01 -1.414975e-15 6.778064e-03
8.207975e-01 3.573917e-15 1.750280e-02
7.959151e-01 -3.719129e-15 2.692633e-02
7.610698e-01 4.769326e-15 3.906653e-02
7.142147e-01 -5.563286e-15 4.729690e-02
6.600640e-01 6.710499e-15 5.877734e-02
5.938032e-01 -5.364962e-15 6.328951e-02
5.253877e-01 7.424341e-15 7.554401e-02
4.419048e-01 -8.849351e-15 7.604459e-02
3.611150e-01 4.269675e-15 9.402652e-02
2.560718e-01 -1.935606e-14 9.133218e-02
1.554355e-01 8.399056e-15 1.204013e-01
0.000000e+00 1.492201e-14 2.010989e-01
0.000000e+00 -1.573969e-17 -5.133616e-02
3.326037e-02 -6.524151e-16 -4.455160e-02
6.864426e-02 -1.080881e-14 -3.841953e-02
1.043265e-01 4.551733e-15 -3.830609e-02
1.405898e-01 3.054696e-15 -3.821954e-02
1.773940e-01 1.729796e-15 -3.892711e-02
2.147042e-01 -1.054475e-14 -3.929924e-02
2.522839e-01 3.391577e-15 -3.957114e-02
2.899616e-01 -1.406780e-15 -3.962274e-02
3.276251e-01 6.065730e-15 -3.952323e-02
3.650936e-01 3.044883e-15 -3.931475e-02
4.023839e-01 -1.597901e-15 -3.910332e-02
4.393850e-01 -4.482726e-15 -3.882786e-02
4.760843e-01 5.933598e-15 -3.849822e-02
5.123254e-01 1.894783e-16 -3.804384e-02
5.480840e-01 -1.126508e-15 -3.756270e-02
5.832274e-01 1.081282e-15 -3.682999e-02
6.175754e-01 -3.738072e-15 -3.605391e-02
6.510229e-01 -1.646576e-16 -3.490596e-02
6.831314e-01 -2.012902e-16 -3.366227e-02
7.139036e-01 9.764035e-16 -3.187165e-02
7.425171e-01 -1.671783e-15 -2.984931e-02
7.691355e-01 -1.932177e-15 -2.719553e-02
7.924072e-01 1.168213e-15 -2.392723e-02
8.125687e-01 -4.941577e-15 -1.998655e-02
8.276532e-01 -4.741246e-15 -1.477467e-02
8.377014e-01 -8.582167e-15 -9.025971e-03
8.403914e-01 1.038460e-15 -1.146250e-03
8.353124e-01 -7.614794e-16 6.778064e-03
8.207975e-01 5.865888e-15 1.750280e-02
7.959151e-01 -2.863406e-15 2.692633e-02
7.610698e-01 -2.595635e-15 3.906653e-02
7.142147e-01 -4.402393e-15 4.729690e-02
6.600640e-01 7.708128e-15 5.877734e-02
5.938032e-01 -3.741523e-15 6.328951e-02
5.253877e-01 4.961977e-15 7.554401e-02
4.419048e-01 -2.927384e-15 7.604459e-02
3.611150e-01 2.583154e-15 9.402652e-02
2.560718e-01 -1.368108e-14 9.133218e-02
1.554355e-01 -4.920006e-15 1.204013e-01
0.000000e+00 -8.652536e-15 2.010989e-01
0.000000e+00 8.812715e-15 -5.133616e-02
3.326037e-02 3.187668e-15 -4.455160e-02
6.864426e-02 -1.557108e-14 -3.841953e-02
1.043265e-01 1.302027e-14 -3.830609e-02
1.405898e-01 1.443944e-15 -3.821954e-02
1.773940e-01 6.914249e-15 -3.892711e-02
2.147042e-01 -1.326722e-14 -3.929924e-02
2.522839e-01 6.469329e-15 -3.957114e-02
2.899616e-01 5.779689e-16 -3.962274e-02
3.276251e-01 1.190569e-14 -3.952323e-02
3.650936e-01 4.035141e-15 -3.931475e-02
4.023839e-01 2.569266e-16 -3.910332e-02
4.393850e-01 -1.873716e-15 -3.882786e-02
4.760843e-01 4.530970e-15 -3.849822e-02
5.123254e-01 5.150452e-15 -3.804384e-02
5.480840e-01 -2.908721e-15 -3.756270e-02
5.832274e-01 1.378973e-15 -3.682999e-02
6.175754e-01 -4.575077e-15 -3.605391e-02
6.510229e-01 1.011859e-16 -3.490596e-02
6.831314e-01 -3.935773e-16 -3.366227e-02
7.139036e-01 1.713356e-15 -3.187165e-02
7.425171e-01 -9.166394e-16 -2.984931e-02
7.691355e-01 1.498607e-16 -2.719553e-02
7.924072e-01 1.724416e-15 -2.392723e-02
8.125687e-01 -4.493110e-15 -1.998655e-02
8.276532e-01 -2.503588e-15 -1.477467e-02
8.377014e-01 -1.106473e-14 -9.025971e-03
8.403914e-01 3.688660e-15 -1.146250e-03
8.353124e-01 -1.141140e-15 6.778064e-03
8.207975e-01 5.509069e-15 1.750280e-02
7.959151e-01 -4.205903e-15 2.692633e-02
7.610698e-01 2.575756e-16 3.906653e-02
7.142147e-01 -6.621883e-15 4.729690e-02
6.600640e-01 1.090064e-14 5.877734e-02
5.938032e-01 -6.282353e-15 6.328951e-02
5.253877e-01 5.532211e-15 7.554401e-02
4.419048e-01 -1.078238e-14 7.604459e-02
3.611150e-01 4.294250e-15 9.402652e-02
2.560718e-01 -1.806848e-14 9.133218e-02
1.554355e-01 4.591196e-15 1.204013e-01
0.000000e+00 3.516800e-17 2.010989e-01
0.000000e+00 1.623431e-14 -5.133616e-02
3.326037e-02 -5.164888e-15 -4.455160e-02
6.864426e-02 -8.250195e-15 -3.841953e-02
1.043265e-01 1.375820e-14 -3.830609e-02
1.405898e-01 -1.055390e-15 -3.821954e-02
1.773940e-01 3.654453e-15 -3.892711e-02
2.147042e-01 -1.094561e-14 -3.929924e-02
2.522839e-01 7.343553e-15 -3.957114e-02
2.899616e-01 3.673237e-15 -3.962274e-02
3.276251e-01 9.385458e-15 -3.952323e-02
3.650936e-01 5.192948e-15 -3.931475e-02
4.023839e-01 -2.492658e-15 -3.910332e-02
4.393850e-01 -4.643406e-15 -3.882786e-02
4.760843e-01 4.917290e-15 -3.849822e-02
5.123254e-01 3.132442e-15 -3.804384e-02
5.480840e-01 -2.876580e-15 -3.756270e-02
5.832274e-01 4.888959e-16 -3.682999e-02
6.175754e-01 -4.005063e-15 -3.605391e-02
6.510229e-01 4.656292e-16 -3.490596e-02
6.831314e-01 2.679809e-16 -3.366227e-02
7.139036e-01 -9.042686e-16 -3.187165e-02
7.425171e-01 -4.394170e-16 -2.984931e-02
7.691355e-01 7.275909e-16 -2.719553e-02
7.924072e-01 4.548711e-16 -2.392723e-02
8.125687e-01 -4.781973e-15 -1.998655e-02
8.276532e-01 -4.172033e-15 -1.477467e-02
8.377014e-01 -7.418462e-15 -9.025971e-03
8.403914e-01 3.135346e-15 -1.146250e-03
8.353124e-01 1.388331e-15 6.778064e-03
8.207975e-01 1.249243e-15 1.750280e-02
7.959151e-01 -2.574381e-15 2.692633e-02
7.610698e-01 1.338194e-16 3.906653e-02
7.142147e-01 -2.397944e-15 4.729690e-02
6.600640e-01 5.325566e-15 5.877734e-02
5.938032e-01 -4.508637e-15 6.328951e-02
5.253877e-01 3.274548e-15 7.554401e-02
4.419048e-01 -3.723826e-15 7.604459e-02
3.611150e-01 3.953655e-15 9.402652e-02
2.560718e-01 -8.131446e-15 9.133218e-02
1.554355e-01 -3.682201e-15 1.204013e-01
0.000000e+00 -1.055498e-14 2.010989e-01
0.000000e+00 -8.698633e-15 -5.133616e-02
3.326037e-02 -1.041689e-15 -4.455160e-02
6.864426e-02 -1.365800e-14 -3.841953e-02
1.043265e-01 6.201999e-15 -3.830609e-02
1.405898e-01 -8.438648e-15 -3.821954e-02
1.773940e-01 4.860185e-15 -3.892711e-02
2.147042e-01 -1.005020e-14 -3.929924e-02
2.522839e-01 2.651411e-16 -3.957114e-02
2.899616e-01 -1.754521e-15 -3.962274e-02
3.276251e-01 4.132746e-15 -3.952323e-02