# vtk DataFile Version 3.0
vtk output
ASCII
DATASET UNSTRUCTURED_GRID
POINTS 11767 float
0.000000e+00 0.000000e+00 0.000000e+00
1.460000e-02 0.000000e+00 0.000000e+00
2.920000e-02 0.000000e+00 0.000000e+00
4.380000e-02 0.000000e+00 0.000000e+00
5.840000e-02 0.000000e+00 0.000000e+00
7.300000e-02 0.000000e+00 0.000000e+00
8.760000e-02 0.000000e+00 0.000000e+00
1.022000e-01 0.000000e+00 0.000000e+00
1.168000e-01 0.000000e+00 0.000000e+00
1.314000e-01 0.000000e+00 0.000000e+00
1.460000e-01 0.000000e+00 0.000000e+00
1.606000e-01 0.000000e+00 0.000000e+00
1.752000e-01 0.000000e+00 0.000000e+00
1.898000e-01 0.000000e+00 0.000000e+00
2.044000e-01 0.000000e+00 0.000000e+00
2.190000e-01 0.000000e+00 0.000000e+00
2.336000e-01 0.000000e+00 0.000000e+00
2.482000e-01 0.000000e+00 0.000000e+00
2.628000e-01 0.000000e+00 0.000000e+00
2.774000e-01 0.000000e+00 0.000000e+00
2.920000e-01 0.000000e+00 0.000000e+00
3.066000e-01 0.000000e+00 0.000000e+00
3.212000e-01 0.000000e+00 0.000000e+00
3.358000e-01 0.000000e+00 0.000000e+00
3.504000e-01 0.000000e+00 0.000000e+00
3.650000e-01 0.000000e+00 0.000000e+00
3.796000e-01 0.000000e+00 0.000000e+00
3.942000e-01 0.000000e+00 0.000000e+00
4.088000e-01 0.000000e+00 0.000000e+00
4.234000e-01 0.000000e+00 0.000000e+00
4.380000e-01 0.000000e+00 0.000000e+00
4.526000e-01 0.000000e+00 0.000000e+00
4.672000e-01 0.000000e+00 0.000000e+00
4.818000e-01 0.000000e+00 0.000000e+00
4.964000e-01 0.000000e+00 0.000000e+00
5.110000e-01 0.000000e+00 0.000000e+00
5.256000e-01 0.000000e+00 0.000000e+00
5.402000e-01 0.000000e+00 0.000000e+00
5.548000e-01 0.000000e+00 0.000000e+00
5.694000e-01 0.000000e+00 0.000000e+00
5.840000e-01 0.000000e+00 0.000000e+00
0.000000e+00 1.460000e-02 0.000000e+00
1.460000e-02 1.460000e-02 0.000000e+00
2.920000e-02 1.460000e-02 0.000000e+00
4.380000e-02 1.460000e-02 0.000000e+00
5.840000e-02 1.460000e-02 0.000000e+00
7.300000e-02 1.460000e-02 0.000000e+00
8.760000e-02 1.460000e-02 0.000000e+00
1.022000e-01 1.460000e-02 0.000000e+00
1.168000e-01 1.460000e-02 0.000000e+00
1.314000e-01 1.460000e-02 0.000000e+00
1.460000e-01 1.460000e-02 0.000000e+00
1.606000e-01 1.460000e-02 0.000000e+00
1.752000e-01 1.460000e-02 0.000000e+00
1.898000e-01 1.460000e-02 0.000000e+00
2.044000e-01 1.460000e-02 0.000000e+00
2.190000e-01 1.460000e-02 0.000000e+00
2.336000e-01 1.460000e-02 0.000000e+00
2.482000e-01 1.460000e-02 0.000000e+00
2.628000e-01 1.460000e-02 0.000000e+00
2.774000e-01 1.460000e-02 0.000000e+00
2.920000e-01 1.460000e-02 0.000000e+00
3.066000e-01 1.460000e-02 0.000000e+00
3.212000e-01 1.460000e-02 0.000000e+00
3.358000e-01 1.460000e-02 0.000000e+00
3.504000e-01 1.460000e-02 0.000000e+00
3.650000e-01 1.460000e-02 0.000000e+00
3.796000e-01 1.460000e-02 0.000000e+00
3.942000e-01 1.460000e-02 0.000000e+00
4.088000e-01 1.460000e-02 0.000000e+00
4.234000e-01 1.460000e-02 0.000000e+00
4.380000e-01 1.460000e-02 0.000000e+00
4.526000e-01 1.460000e-02 0.000000e+00
4.672000e-01 1.460000e-02 0.000000e+00
4.818000e-01 1.460000e-02 0.000000e+00
4.964000e-01 1.460000e-02 0.000000e+00
5.110000e-01 1.460000e-02 0.000000e+00
5.256000e-01 1.460000e-02 0.000000e+00
5.402000e-01 1.460000e-02 0.000000e+00
5.548000e-01 1.460000e-02 0.000000e+00
5.694000e-01 1.460000e-02 0.000000e+00
5.840000e-01 1.460000e-02 0.000000e+00
0.000000e+00 2.920000e-02 0.000000e+00
1.460000e-02 2.920000e-02 0.000000e+00
2.920000e-02 2.920000e-02 0.000000e+00
4.380000e-02 2.920000e-02 0.000000e+00
5.840000e-02 2.920000e-02 0.000000e+00
7.300000e-02 2.920000e-02 0.000000e+00
8.760000e-02 2.920000e-02 0.000000e+00
1.022000e-01 2.920000e-02 0.000000e+00
1.168000e-01 2.920000e-02 0.000000e+00
1.314000e-01 2.920000e-02 0.000000e+00
1.460000e-01 2.920000e-02 0.000000e+00
1.606000e-01 2.920000e-02 0.000000e+00
1.752000e-01 2.920000e-02 0.000000e+00
1.898000e-01 2.920000e-02 0.000000e+00
2.044000e-01 2.920000e-02 0.000000e+00
2.190000e-01 2.920000e-02 0.000000e+00
2.336000e-01 2.920000e-02 0.000000e+00
2.482000e-01 2.920000e-02 0.000000e+00
2.628000e-01 2.920000e-02 0.000000e+00
2.774000e-01 2.920000e-02 0.000000e+00
2.920000e-01 2.920000e-02 0.000000e+00
3.066000e-01 2.920000e-02 0.000000e+00
3.212000e-01 2.920000e-02 0.000000e+00
3.358000e-01 2.920000e-02 0.000000e+00
3.504000e-01 2.920000e-02 0.000000e+00
3.650000e-01 2.920000e-02 0.000000e+00
3.796000e-01 2.920000e-02 0.000000e+00
3.942000e-01 2.920000e-02 0.000000e+00
4.088000e-01 2.920000e-02 0.000000e+00
4.234000e-01 2.920000e-02 0.000000e+00
4.380000e-01 2.920000e-02 0.000000e+00
4.526000e-01 2.920000e-02 0.000000e+00
4.672000e-01 2.920000e-02 0.000000e+00
4.818000e-01 2.920000e-02 0.000000e+00
4.964000e-01 2.920000e-02 0.000000e+00
5.110000e-01 2.920000e-02 0.000000e+00
5.256000e-01 2.920000e-02 0.000000e+00
5.402000e-01 2.920000e-02 0.000000e+00
5.548000e-01 2.920000e-02 0.000000e+00
5.694000e-01 2.920000e-02 0.000000e+00
5.840000e-01 2.920000e-02 0.000000e+00
0.000000e+00 4.380000e-02 0.000000e+00
1.460000e-02 4.380000e-02 0.000000e+00
2.920000e-02 4.380000e-02 0.000000e+00
4.380000e-02 4.380000e-02 0.000000e+00
5.840000e-02 4.380000e-02 0.000000e+00
7.300000e-02 4.380000e-02 0.000000e+00
8.760000e-02 4.380000e-02 0.000000e+00
1.022000e-01 4.380000e-02 0.000000e+00
1.168000e-01 4.380000e-02 0.000000e+00
1.314000e-01 4.380000e-02 0.000000e+00
1.460000e-01 4.380000e-02 0.000000e+00
1.606000e-01 4.380000e-02 0.000000e+00
1.752000e-01 4.380000e-02 0.000000e+00
1.898000e-01 4.380000e-02 0.000000e+00
2.044000e-01 4.380000e-02 0.000000e+00
2.190000e-01 4.380000e-02 0.000000e+00
2.336000e-01 4.380000e-02 0.000000e+00
2.482000e-01 4.380000e-02 0.000000e+00
2.628000e-01 4.380000e-02 0.000000e+00
2.774000e-01 4.380000e-02 0.000000e+00
2.920000e-01 4.380000e-02 0.000000e+00
3.066000e-01 4.380000e-02 0.000000e+00
3.212000e-01 4.380000e-02 0.000000e+00
3.358000e-01 4.380000e-02 0.000000e+00
3.504000e-01 4.380000e-02 0.000000e+00
3.650000e-01 4.380000e-02 0.000000e+00
3.796000e-01 4.380000e-02 0.000000e+00
3.942000e-01 4.380000e-02 0.000000e+00
4.088000e-01 4.380000e-02 0.000000e+00
4.234000e-01 4.380000e-02 0.000000e+00
4.380000e-01 4.380000e-02 0.000000e+00
4.526000e-01 4.380000e-02 0.000000e+00
4.672000e-01 4.380000e-02 0.000000e+00
4.818000e-01 4.380000e-02 0.000000e+00
4.964000e-01 4.380000e-02 0.000000e+00
5.110000e-01 4.380000e-02 0.000000e+00
5.256000e-01 4.380000e-02 0.000000e+00
5.402000e-01 4.380000e-02 0.000000e+00
5.548000e-01 4.380000e-02 0.000000e+00
5.694000e-01 4.380000e-02 0.000000e+00
5.840000e-01 4.380000e-02 0.000000e+00
0.000000e+00 5.840000e-02 0.000000e+00
1.460000e-02 5.840000e-02 0.000000e+00
2.920000e-02 5.840000e-02 0.000000e+00
4.380000e-02 5.840000e-02 0.000000e+00
5.840000e-02 5.840000e-02 0.000000e+00
7.300000e-02 5.840000e-02 0.000000e+00
8.760000e-02 5.840000e-02 0.000000e+00
1.022000e-01 5.840000e-02 0.000000e+00
1.168000e-01 5.840000e-02 0.000000e+00
1.314000e-01 5.840000e-02 0.000000e+00
1.460000e-01 5.840000e-02 0.000000e+00
1.606000e-01 5.840000e-02 0.000000e+00
1.752000e-01 5.840000e-02 0.000000e+00
1.898000e-01 5.840000e-02 0.000000e+00
2.044000e-01 5.840000e-02 0.000000e+00
2.190000e-01 5.840000e-02 0.000000e+00
2.336000e-01 5.840000e-02 0.000000e+00
2.482000e-01 5.840000e-02 0.000000e+00
2.628000e-01 5.840000e-02 0.000000e+00
2.774000e-01 5.840000e-02 0.000000e+00
2.920000e-01 5.840000e-02 0.000000e+00
3.066000e-01 5.840000e-02 0.000000e+00
3.212000e-01 5.840000e-02 0.000000e+00
3.358000e-01 5.840000e-02 0.000000e+00
3.504000e-01 5.840000e-02 0.000000e+00
3.650000e-01 5.840000e-02 0.000000e+00
3.796000e-01 5.840000e-02 0.000000e+00
3.942000e-01 5.840000e-02 0.000000e+00
4.088000e-01 5.840000e-02 0.000000e+00
4.234000e-01 5.840000e-02 0.000000e+00
4.380000e-01 5.840000e-02 0.000000e+00
4.526000e-01 5.840000e-02 0.000000e+00
4.672000e-01 5.840000e-02 0.000000e+00
4.818000e-01 5.840000e-02 0.000000e+00
4.964000e-01 5.840000e-02 0.000000e+00
5.110000e-01 5.840000e-02 0.000000e+00
5.256000e-01 5.840000e-02 0.000000e+00
5.402000e-01 5.840000e-02 0.000000e+00
5.548000e-01 5.840000e-02 0.000000e+00
5.694000e-01 5.840000e-02 0.000000e+00
5.840000e-01 5.840000e-02 0.000000e+00
0.000000e+00 7.300000e-02 0.000000e+00
1.460000e-02 7.300000e-02 0.000000e+00
2.920000e-02 7.300000e-02 0.000000e+00
4.380000e-02 7.300000e-02 0.000000e+00
5.840000e-02 7.300000e-02 0.000000e+00
7.300000e-02 7.300000e-02 0.000000e+00
8.760000e-02 7.300000e-02 0.000000e+00
1.022000e-01 7.300000e-02 0.000000e+00
1.168000e-01 7.300000e-02 0.000000e+00
1.314000e-01 7.300000e-02 0.000000e+00
1.460000e-01 7.300000e-02 0.000000e+00
1.606000e-01 7.300000e-02 0.000000e+00
1.752000e-01 7.300000e-02 0.000000e+00
1.898000e-01 7.300000e-02 0.000000e+00
2.044000e-01 7.300000e-02 0.000000e+00
2.190000e-01 7.300000e-02 0.000000e+00
2.336000e-01 7.300000e-02 0.000000e+00
2.482000e-01 7.300000e-02 0.000000e+00
2.628000e-01 7.300000e-02 0.000000e+00
2.774000e-01 7.300000e-02 0.000000e+00
2.920000e-01 7.300000e-02 0.000000e+00
3.066000e-01 7.300000e-02 0.000000e+00
3.212000e-01 7.300000e-02 0.000000e+00
3.358000e-01 7.300000e-02 0.000000e+00
3.504000e-01 7.300000e-02 0.000000e+00
3.650000e-01 7.300000e-02 0.000000e+00
3.796000e-01 7.300000e-02 0.000000e+00
3.942000e-01 7.300000e-02 0.000000e+00
4.088000e-01 7.300000e-02 0.000000e+00
4.234000e-01 7.300000e-02 0.000000e+00
4.380000e-01 7.300000e-02 0.000000e+00
4.526000e-01 7.300000e-02 0.000000e+00
4.672000e-01 7.300000e-02 0.000000e+00
4.818000e-01 7.300000e-02 0.000000e+00
4.964000e-01 7.300000e-02 0.000000e+00
5.110000e-01 7.300000e-02 0.000000e+00
5.256000e-01 7.300000e-02 0.000000e+00
5.402000e-01 7.300000e-02 0.000000e+00
5.548000e-01 7.300000e-02 0.000000e+00
5.694000e-01 7.300000e-02 0.000000e+00
5.840000e-01 7.300000e-02 0.000000e+00
0.000000e+00 8.760000e-02 0.000000e+00
1.460000e-02 8.760000e-02 0.000000e+00
2.920000e-02 8.760000e-02 0.000000e+00
4.380000e-02 8.760000e-02 0.000000e+00
5.840000e-02 8.760000e-02 0.000000e+00
7.300000e-02 8.760000e-02 0.000000e+00
8.760000e-02 8.760000e-02 0.000000e+00
1.022000e-01 8.760000e-02 0.000000e+00
[...]
POINT_DATA 11767
VECTORS Velocity float
0.000000e+00 0.000000e+00 0.000000e+00
-1.142188e-02 0.000000e+00 0.000000e+00
-2.566889e-02 0.000000e+00 0.000000e+00
-3.909874e-02 0.000000e+00 0.000000e+00
-5.055329e-02 0.000000e+00 0.000000e+00
-5.844369e-02 0.000000e+00 0.000000e+00
-6.260871e-02 0.000000e+00 0.000000e+00
-6.306819e-02 0.000000e+00 0.000000e+00
-6.040226e-02 0.000000e+00 0.000000e+00
-5.505882e-02 0.000000e+00 0.000000e+00
-4.741476e-02 0.000000e+00 0.000000e+00
-3.772493e-02 0.000000e+00 0.000000e+00
-2.636317e-02 0.000000e+00 0.000000e+00
-1.390401e-02 0.000000e+00 0.000000e+00
-1.042406e-03 0.000000e+00 0.000000e+00
1.140281e-02 0.000000e+00 0.000000e+00
2.285284e-02 0.000000e+00 0.000000e+00
3.258422e-02 0.000000e+00 0.000000e+00
4.121744e-02 0.000000e+00 0.000000e+00
4.926856e-02 0.000000e+00 0.000000e+00
5.719937e-02 0.000000e+00 0.000000e+00
6.495720e-02 0.000000e+00 0.000000e+00
7.216292e-02 0.000000e+00 0.000000e+00
7.853292e-02 0.000000e+00 0.000000e+00
8.450617e-02 0.000000e+00 0.000000e+00
9.044367e-02 0.000000e+00 0.000000e+00
9.632103e-02 0.000000e+00 0.000000e+00
1.020757e-01 0.000000e+00 0.000000e+00
1.075313e-01 0.000000e+00 0.000000e+00
1.125637e-01 0.000000e+00 0.000000e+00
1.169226e-01 0.000000e+00 0.000000e+00
1.203208e-01 0.000000e+00 0.000000e+00
1.222019e-01 0.000000e+00 0.000000e+00
1.218781e-01 0.000000e+00 0.000000e+00
1.185297e-01 0.000000e+00 0.000000e+00
1.114502e-01 0.000000e+00 0.000000e+00
9.970341e-02 0.000000e+00 0.000000e+00
8.485780e-02 0.000000e+00 0.000000e+00
6.354030e-02 0.000000e+00 0.000000e+00
4.222745e-02 0.000000e+00 0.000000e+00
0.000000e+00 0.000000e+00 0.000000e+00
0.000000e+00 -6.400922e-14 0.000000e+00
-1.142188e-02 5.351811e-14 0.000000e+00
-2.566889e-02 -6.655279e-14 0.000000e+00
-3.909874e-02 2.336178e-14 0.000000e+00
-5.055329e-02 8.300006e-15 0.000000e+00
-5.844369e-02 5.951543e-15 0.000000e+00
-6.260871e-02 -6.414856e-14 0.000000e+00
-6.306819e-02 2.722658e-14 0.000000e+00
-6.040226e-02 2.196653e-14 0.000000e+00
-5.505882e-02 6.959374e-15 0.000000e+00
-4.741476e-02 2.195798e-14 0.000000e+00
-3.772493e-02 -6.590003e-15 0.000000e+00
-2.636317e-02 4.191150e-14 0.000000e+00
-1.390401e-02 1.021655e-15 0.000000e+00
-1.042406e-03 1.925762e-14 0.000000e+00
1.140281e-02 4.463877e-14 0.000000e+00
2.285284e-02 -4.624184e-14 0.000000e+00
3.258422e-02 7.975242e-14 0.000000e+00
4.121744e-02 -9.424309e-14 0.000000e+00
4.926856e-02 5.738799e-14 0.000000e+00
5.719937e-02 -4.984764e-14 0.000000e+00
6.495720e-02 2.213742e-14 0.000000e+00
7.216292e-02 1.426417e-14 0.000000e+00
7.853292e-02 -6.142617e-14 0.000000e+00
8.450617e-02 -1.250819e-14 0.000000e+00
9.044367e-02 5.268023e-14 0.000000e+00
9.632103e-02 -4.715620e-14 0.000000e+00
1.020757e-01 4.982121e-14 0.000000e+00
1.075313e-01 -2.830074e-15 0.000000e+00
1.125637e-01 6.512941e-14 0.000000e+00
1.169226e-01 -7.338694e-14 0.000000e+00
1.203208e-01 6.322375e-14 0.000000e+00
1.222019e-01 3.933430e-15 0.000000e+00
1.218781e-01 4.423141e-14 0.000000e+00
1.185297e-01 -6.085580e-14 0.000000e+00
1.114502e-01 -1.987636e-14 0.000000e+00
9.970341e-02 6.912346e-14 0.000000e+00
8.485780e-02 -8.028648e-14 0.000000e+00
6.354030e-02 -3.094389e-14 0.000000e+00
4.222745e-02 -7.275608e-16 0.000000e+00
0.000000e+00 7.328872e-14 0.000000e+00
0.000000e+00 -4.855847e-14 0.000000e+00
-1.142188e-02 1.206833e-13 0.000000e+00
-2.566889e-02 2.343815e-14 0.000000e+00
-3.909874e-02 -3.384507e-15 0.000000e+00
-5.055329e-02 -1.995298e-14 0.000000e+00
-5.844369e-02 -4.359635e-14 0.000000e+00
-6.260871e-02 4.999570e-14 0.000000e+00
-6.306819e-02 1.694084e-14 0.000000e+00
-6.040226e-02 -7.859287e-15 0.000000e+00
-5.505882e-02 2.893342e-14 0.000000e+00
-4.741476e-02 -2.502574e-14 0.000000e+00
-3.772493e-02 -5.447536e-14 0.000000e+00
-2.636317e-02 6.033280e-14 0.000000e+00
-1.390401e-02 -1.203173e-13 0.000000e+00
-1.042406e-03 1.919293e-15 0.000000e+00
1.140281e-02 -1.302690e-14 0.000000e+00
2.285284e-02 -3.180291e-14 0.000000e+00
3.258422e-02 9.410042e-14 0.000000e+00
4.121744e-02 -2.210550e-14 0.000000e+00
4.926856e-02 -1.638712e-14 0.000000e+00
5.719937e-02 9.653345e-14 0.000000e+00
6.495720e-02 -1.517706e-13 0.000000e+00
7.216292e-02 1.627854e-13 0.000000e+00
7.853292e-02 -7.848061e-14 0.000000e+00
8.450617e-02 1.001511e-13 0.000000e+00
9.044367e-02 -2.200382e-14 0.000000e+00
9.632103e-02 4.232817e-14 0.000000e+00
1.020757e-01 5.227490e-14 0.000000e+00
1.075313e-01 7.448701e-14 0.000000e+00
1.125637e-01 1.839278e-14 0.000000e+00
1.169226e-01 -1.135312e-14 0.000000e+00
1.203208e-01 -3.680417e-14 0.000000e+00
1.222019e-01 3.137624e-14 0.000000e+00
1.218781e-01 -2.011069e-14 0.000000e+00
1.185297e-01 4.783603e-14 0.000000e+00
1.114502e-01 -5.839989e-14 0.000000e+00
9.970341e-02 1.385010e-13 0.000000e+00
8.485780e-02 -4.035649e-14 0.000000e+00
6.354030e-02 -1.166576e-13 0.000000e+00
4.222745e-02 1.588760e-13 0.000000e+00
0.000000e+00 5.847835e-15 0.000000e+00
0.000000e+00 -3.105865e-14 0.000000e+00
-1.142188e-02 -2.324478e-14 0.000000e+00
-2.566889e-02 -1.777653e-14 0.000000e+00
-3.909874e-02 -2.719403e-14 0.000000e+00
-5.055329e-02 -2.794987e-14 0.000000e+00
-5.844369e-02 -3.510857e-14 0.000000e+00
-6.260871e-02 -4.003760e-15 0.000000e+00
-6.306819e-02 -5.812798e-14 0.000000e+00
-6.040226e-02 -4.997417e-14 0.000000e+00
-5.505882e-02 3.068856e-14 0.000000e+00
-4.741476e-02 9.041495e-15 0.000000e+00
-3.772493e-02 -1.762994e-14 0.000000e+00
-2.636317e-02 4.286870e-14 0.000000e+00
-1.390401e-02 -2.410350e-14 0.000000e+00
-1.042406e-03 2.554136e-14 0.000000e+00
1.140281e-02 -2.185122e-15 0.000000e+00
2.285284e-02 -7.364029e-14 0.000000e+00
3.258422e-02 8.644221e-14 0.000000e+00
4.121744e-02 -1.934022e-14 0.000000e+00
4.926856e-02 -3.144743e-15 0.000000e+00
5.719937e-02 2.671479e-15 0.000000e+00
6.495720e-02 -3.689422e-15 0.000000e+00
7.216292e-02 -3.241704e-14 0.000000e+00
7.853292e-02 5.152743e-14 0.000000e+00
8.450617e-02 -1.027801e-14 0.000000e+00
9.044367e-02 -1.609193e-14 0.000000e+00
9.632103e-02 -5.952226e-14 0.000000e+00
1.020757e-01 7.642181e-14 0.000000e+00
1.075313e-01 1.406401e-14 0.000000e+00
1.125637e-01 1.040600e-13 0.000000e+00
1.169226e-01 -1.006700e-13 0.000000e+00
1.203208e-01 1.051826e-13 0.000000e+00
1.222019e-01 -7.148409e-14 0.000000e+00
1.218781e-01 9.091436e-14 0.000000e+00
1.185297e-01 -1.098403e-13 0.000000e+00
1.114502e-01 1.872797e-14 0.000000e+00
9.970341e-02 1.129801e-13 0.000000e+00
8.485780e-02 -5.774595e-14 0.000000e+00
6.354030e-02 -1.872523e-14 0.000000e+00
4.222745e-02 1.197048e-14 0.000000e+00
0.000000e+00 3.020300e-14 0.000000e+00
0.000000e+00 -9.890177e-14 0.000000e+00
-1.142188e-02 1.409324e-13 0.000000e+00
-2.566889e-02 -4.615841e-14 0.000000e+00
-3.909874e-02 3.790875e-14 0.000000e+00
-5.055329e-02 -1.043681e-14 0.000000e+00
-5.844369e-02 -8.904765e-14 0.000000e+00
-6.260871e-02 -1.982377e-16 0.000000e+00
-6.306819e-02 1.429284e-14 0.000000e+00
-6.040226e-02 1.608256e-14 0.000000e+00
-5.505882e-02 3.360061e-16 0.000000e+00
-4.741476e-02 -5.071665e-14 0.000000e+00
-3.772493e-02 -1.743047e-14 0.000000e+00
-2.636317e-02 -2.184979e-14 0.000000e+00
-1.390401e-02 -3.849729e-14 0.000000e+00
-1.042406e-03 -4.720455e-15 0.000000e+00
1.140281e-02 2.658162e-14 0.000000e+00
2.285284e-02 -4.882935e-14 0.000000e+00
3.258422e-02 9.515907e-14 0.000000e+00
4.121744e-02 -9.667917e-14 0.000000e+00
4.926856e-02 5.673336e-14 0.000000e+00
5.719937e-02 9.739708e-14 0.000000e+00
6.495720e-02 -1.081337e-13 0.000000e+00
7.216292e-02 1.314064e-13 0.000000e+00
7.853292e-02 -8.001607e-14 0.000000e+00
8.450617e-02 8.221598e-14 0.000000e+00
9.044367e-02 3.323861e-15 0.000000e+00
9.632103e-02 2.522889e-14 0.000000e+00
1.020757e-01 2.658957e-14 0.000000e+00
1.075313e-01 3.890396e-14 0.000000e+00
1.125637e-01 1.131525e-13 0.000000e+00
1.169226e-01 -6.161895e-14 0.000000e+00
1.203208e-01 6.452622e-15 0.000000e+00
1.222019e-01 1.370782e-14 0.000000e+00
1.218781e-01 9.302929e-14 0.000000e+00
1.185297e-01 -2.608751e-14 0.000000e+00
1.114502e-01 1.099132e-14 0.000000e+00
9.970341e-02 6.810476e-14 0.000000e+00
8.485780e-02 3.780125e-14 0.000000e+00
6.354030e-02 -6.842141e-14 0.000000e+00
4.222745e-02 5.259582e-14 0.000000e+00
0.000000e+00 -2.698712e-14 0.000000e+00
0.000000e+00 -1.167409e-13 0.000000e+00
-1.142188e-02 -4.858169e-14 0.000000e+00
-2.566889e-02 -1.007636e-14 0.000000e+00
-3.909874e-02 -2.701940e-14 0.000000e+00
-5.055329e-02 -6.088115e-14 0.000000e+00
-5.844369e-02 -2.858591e-14 0.000000e+00
-6.260871e-02 1.503843e-14 0.000000e+00
-6.306819e-02 2.887667e-14 0.000000e+00
-6.040226e-02 -1.194075e-14 0.000000e+00
-5.505882e-02 -4.410127e-14 0.000000e+00
-4.741476e-02 -3.445578e-14 0.000000e+00
-3.772493e-02 -4.562520e-14 0.000000e+00
-2.636317e-02 1.391780e-14 0.000000e+00
-1.390401e-02 -1.107934e-13 0.000000e+00
-1.042406e-03 4.131376e-15 0.000000e+00
1.140281e-02 5.512494e-14 0.000000e+00
2.285284e-02 -8.885631e-14 0.000000e+00
3.258422e-02 1.265090e-13 0.000000e+00
4.121744e-02 -8.110783e-14 0.000000e+00
4.926856e-02 3.464327e-14 0.000000e+00
5.719937e-02 1.680952e-14 0.000000e+00
6.495720e-02 -1.122976e-16 0.000000e+00
7.216292e-02 2.899726e-14 0.000000e+00
7.853292e-02 -7.991062e-14 0.000000e+00
8.450617e-02 4.161651e-14 0.000000e+00
9.044367e-02 -4.031551e-14 0.000000e+00
9.632103e-02 -5.274797e-14 0.000000e+00
1.020757e-01 4.293830e-14 0.000000e+00
1.075313e-01 -3.055080e-14 0.000000e+00
1.125637e-01 5.168304e-14 0.000000e+00
1.169226e-01 -5.933881e-14 0.000000e+00
1.203208e-01 3.742167e-14 0.000000e+00
1.222019e-01 -9.808743e-14 0.000000e+00
1.218781e-01 1.314370e-13 0.000000e+00
1.185297e-01 -6.951124e-14 0.000000e+00
1.114502e-01 6.426179e-14 0.000000e+00
9.970341e-02 -5.590326e-14 0.000000e+00
8.485780e-02 8.009072e-14 0.000000e+00
6.354030e-02 -7.124556e-14 0.000000e+00
4.222745e-02 8.947522e-14 0.000000e+00
0.000000e+00 -2.341482e-15 0.000000e+00
0.000000e+00 0.000000e+00 0.000000e+00
-1.142188e-02 0.000000e+00 0.000000e+00
-2.566889e-02 0.000000e+00 0.000000e+00
-3.909874e-02 0.000000e+00 0.000000e+00
-5.055329e-02 0.000000e+00 0.000000e+00
-5.844369e-02 0.000000e+00 0.000000e+00
-6.260871e-02 0.000000e+00 0.000000e+00
-6.306819e-02 0.000000e+00 0.000000e+00
-6.040226e-02 0.000000e+00 0.000000e+00
-5.505882e-02 0.000000e+00 0.000000e+00
-4.741476e-02 0.000000e+00 0.000000e+00
-3.772493e-02 0.000000e+00 0.000000e+00
-2.636317e-02 0.000000e+00 0.000000e+00
-1.390401e-02 0.000000e+00 0.000000e+00
-1.042406e-03 0.000000e+00 0.000000e+00
1.140281e-02 0.000000e+00 0.000000e+00
2.285284e-02 0.000000e+00 0.000000e+00
3.258422e-02 0.000000e+00 0.000000e+00
4.121744e-02 0.000000e+00 0.000000e+00
4.926856e-02 0.000000e+00 0.000000e+00
5.719937e-02 0.000000e+00 0.000000e+00
6.495720e-02 0.000000e+00 0.000000e+00
7.216292e-02 0.000000e+00 0.000000e+00
7.853292e-02 0.000000e+00 0.000000e+00
8.450617e-02 0.000000e+00 0.000000e+00
9.044367e-02 0.000000e+00 0.000000e+00
9.632103e-02 0.000000e+00 0.000000e+00
1.020757e-01 0.000000e+00 0.000000e+00
1.075313e-01 0.000000e+00 0.000000e+00
1.125637e-01 0.000000e+00 0.000000e+00
1.169226e-01 0.000000e+00 0.000000e+00
1.203208e-01 0.000000e+00 0.000000e+00
1.222019e-01 0.000000e+00 0.000000e+00
1.218781e-01 0.000000e+00 0.000000e+00
1.185297e-01 0.000000e+00 0.000000e+00
1.114502e-01 0.000000e+00 0.000000e+00
9.970341e-02 0.000000e+00 0.000000e+00
8.485780e-02 0.000000e+00 0.000000e+00
6.354030e-02 0.000000e+00 0.000000e+00
4.222745e-02 0.000000e+00 0.000000e+00
0.000000e+00 0.000000e+00 0.000000e+00
0.000000e+00 0.000000e+00 1.538887e-02
-3.072267e-02 0.000000e+00 1.578696e-02
-5.631861e-02 0.000000e+00 1.512087e-02
-7.828989e-02 0.000000e+00 1.262768e-02
-9.530683e-02 0.000000e+00 9.067740e-03
-1.074936e-01 0.000000e+00 4.884581e-03
-1.147873e-01 0.000000e+00 8.280465e-04
-1.178280e-01 0.000000e+00 -2.811445e-03
-1.171586e-01 0.000000e+00 -5.847851e-03
-1.134408e-01 0.000000e+00 -8.447932e-03
-1.070060e-01 0.000000e+00 -1.074970e-02
-9.818417e-02 0.000000e+00 -1.275883e-02
-8.734008e-02 0.000000e+00 -1.428401e-02
-7.508619e-02 0.000000e+00 -1.516317e-02
-6.215141e-02 0.000000e+00 -1.522511e-02
-4.939665e-02 0.000000e+00 -1.457758e-02
-3.752601e-02 0.000000e+00 -1.321599e-02
-2.693254e-02 0.000000e+00 -1.172164e-02
-1.772489e-02 0.000000e+00 -1.076770e-02
-9.525264e-03 0.000000e+00 -1.032869e-02
-1.678845e-03 0.000000e+00 -1.029574e-02
6.464676e-03 0.000000e+00 -1.025894e-02
1.524550e-02 0.000000e+00 -9.975006e-03
2.466315e-02 0.000000e+00 -9.703774e-03
3.445171e-02 0.000000e+00 -9.677443e-03
4.421917e-02 0.000000e+00 -9.596378e-03
5.355766e-02 0.000000e+00 -9.353850e-03
6.219592e-02 0.000000e+00 -8.943135e-03
6.992236e-02 0.000000e+00 -8.393298e-03
7.670020e-02 0.000000e+00 -7.704484e-03
8.242114e-02 0.000000e+00 -6.812297e-03
8.699278e-02 0.000000e+00 -5.591860e-03
9.014228e-02 0.000000e+00 -3.840582e-03
9.143301e-02 0.000000e+00 -1.343056e-03
9.011953e-02 0.000000e+00 1.826115e-03
8.530376e-02 0.000000e+00 6.257496e-03
7.646321e-02 0.000000e+00 9.665470e-03
6.343988e-02 0.000000e+00 1.534324e-02
4.617515e-02 0.000000e+00 1.675473e-02
2.579094e-02 0.000000e+00 2.577737e-02
0.000000e+00 0.000000e+00 3.853252e-02
0.000000e+00 -1.596141e-14 1.538887e-02
-3.072267e-02 2.478650e-14 1.578696e-02
-5.631861e-02 -6.953673e-15 1.512087e-02
-7.828989e-02 3.423266e-14 1.262768e-02
-9.530683e-02 -1.690729e-14 9.067740e-03
-1.074936e-01 4.515743e-15 4.884581e-03
-1.147873e-01 -1.157605e-15 8.280465e-04
-1.178280e-01 -1.014963e-14 -2.811445e-03
-1.171586e-01 -5.066574e-14 -5.847851e-03
-1.134408e-01 -7.700763e-15 -8.447932e-03
-1.070060e-01 -4.393644e-14 -1.074970e-02
-9.818417e-02 1.679973e-14 -1.275883e-02
-8.734008e-02 -1.401391e-14 -1.428401e-02
-7.508619e-02 -2.782498e-14 -1.516317e-02
-6.215141e-02 1.074318e-14 -1.522511e-02
-4.939665e-02 -4.708543e-14 -1.457758e-02
-3.752601e-02 -1.613676e-14 -1.321599e-02
-2.693254e-02 6.022526e-14 -1.172164e-02
-1.772489e-02 -4.832763e-14 -1.076770e-02
-9.525264e-03 2.803506e-14 -1.032869e-02
-1.678845e-03 6.137408e-14 -1.029574e-02
6.464676e-03 -3.412154e-14 -1.025894e-02
1.524550e-02 1.904086e-14 -9.975006e-03
2.466315e-02 1.477389e-14 -9.703774e-03
3.445171e-02 5.217332e-14 -9.677443e-03
4.421917e-02 -6.146903e-14 -9.596378e-03
5.355766e-02 -1.898669e-14 -9.353850e-03
6.219592e-02 9.141110e-15 -8.943135e-03
6.992236e-02 -5.295693e-16 -8.393298e-03
7.670020e-02 -6.262544e-14 -7.704484e-03
8.242114e-02 3.666410e-14 -6.812297e-03
8.699278e-02 -7.416217e-14 -5.591860e-03
9.014228e-02 1.609436e-14 -3.840582e-03
9.143301e-02 1.686972e-14 -1.343056e-03
9.011953e-02 6.056399e-14 1.826115e-03
8.530376e-02 4.144376e-14 6.257496e-03
7.646321e-02 -1.382495e-13 9.665470e-03
6.343988e-02 1.211958e-13 1.534324e-02
4.617515e-02 -4.961101e-14 1.675473e-02
2.579094e-02 5.218451e-14 2.577737e-02
0.000000e+00 -9.572942e-14 3.853252e-02
0.000000e+00 7.836030e-15 1.538887e-02
-3.072267e-02 -6.948065e-14 1.578696e-02
-5.631861e-02 -5.713555e-14 1.512087e-02
-7.828989e-02 -1.271231e-14 1.262768e-02
-9.530683e-02 -6.660318e-15 9.067740e-03
-1.074936e-01 3.750297e-14 4.884581e-03
-1.147873e-01 -4.582226e-14 8.280465e-04
-1.178280e-01 2.290376e-14 -2.811445e-03
-1.171586e-01 -7.888874e-15 -5.847851e-03
-1.134408e-01 -2.387769e-14 -8.447932e-03
-1.070060e-01 2.563396e-14 -1.074970e-02
-9.818417e-02 -6.633290e-14 -1.275883e-02
-8.734008e-02 1.528283e-14 -1.428401e-02
-7.508619e-02 -2.566681e-14 -1.516317e-02
-6.215141e-02 1.059600e-14 -1.522511e-02
-4.939665e-02 -5.026269e-14 -1.457758e-02
-3.752601e-02 -1.616401e-14 -1.321599e-02
-2.693254e-02 -5.194025e-15 -1.172164e-02
-1.772489e-02 4.207319e-14 -1.076770e-02
-9.525264e-03 6.413717e-14 -1.032869e-02
-1.678845e-03 8.736434e-15 -1.029574e-02
6.464676e-03 2.543976e-14 -1.025894e-02
1.524550e-02 -2.962212e-15 -9.975006e-03
2.466315e-02 7.688988e-15 -9.703774e-03
3.445171e-02 5.736213e-14 -9.677443e-03
4.421917e-02 -6.593367e-14 -9.596378e-03
5.355766e-02 -1.898128e-15 -9.353850e-03
6.219592e-02 -4.598575e-14 -8.943135e-03
6.992236e-02 -2.479784e-14 -8.393298e-03
7.670020e-02 -3.900346e-14 -7.704484e-03
8.242114e-02 1.709905e-14 -6.812297e-03
8.699278e-02 -2.937271e-14 -5.591860e-03
9.014228e-02 -5.278508e-15 -3.840582e-03
9.143301e-02 -3.926934e-14 -1.343056e-03
9.011953e-02 3.854931e-14 1.826115e-03
8.530376e-02 6.056920e-14 6.257496e-03
7.646321e-02 -1.023956e-13 9.665470e-03
6.343988e-02 -4.421675e-14 1.534324e-02
4.617515e-02 8.892234e-14 1.675473e-02
2.579094e-02 3.754591e-15 2.577737e-02
0.000000e+00 -8.531330e-14 3.853252e-02
0.000000e+00 -9.206168e-14 1.538887e-02
-3.072267e-02 1.332282e-13 1.578696e-02
-5.631861e-02 -1.118865e-13 1.512087e-02
-7.828989e-02 -8.061858e-15 1.262768e-02
-9.530683e-02 1.303520e-14 9.067740e-03
-1.074936e-01 7.964121e-15 4.884581e-03
-1.147873e-01 -3.413810e-14 8.280465e-04
-1.178280e-01 3.282840e-14 -2.811445e-03
-1.171586e-01 -2.544458e-14 -5.847851e-03
-1.134408e-01 -8.895232e-14 -8.447932e-03
-1.070060e-01 4.985196e-14 -1.074970e-02
-9.818417e-02 -3.452862e-15 -1.275883e-02
-8.734008e-02 1.397507e-14 -1.428401e-02
-7.508619e-02 -4.464200e-14 -1.516317e-02
-6.215141e-02 -1.551194e-14 -1.522511e-02
-4.939665e-02 4.303788e-14 -1.457758e-02
-3.752601e-02 2.742927e-14 -1.321599e-02
-2.693254e-02 3.085410e-14 -1.172164e-02
-1.772489e-02 -1.832585e-14 -1.076770e-02
-9.525264e-03 -2.436921e-14 -1.032869e-02
-1.678845e-03 7.699244e-14 -1.029574e-02
6.464676e-03 1.901713e-14 -1.025894e-02
1.524550e-02 3.238187e-14 -9.975006e-03
2.466315e-02 -1.650007e-14 -9.703774e-03
3.445171e-02 3.593544e-14 -9.677443e-03
4.421917e-02 -2.252939e-14 -9.596378e-03
5.355766e-02 1.739767e-14 -9.353850e-03
6.219592e-02 9.803875e-14 -8.943135e-03
6.992236e-02 -9.868447e-14 -8.393298e-03
7.670020e-02 -9.653875e-15 -7.704484e-03
8.242114e-02 2.012421e-14 -6.812297e-03
8.699278e-02 -8.543453e-14 -5.591860e-03
9.014228e-02 1.669018e-14 -3.840582e-03
9.143301e-02 -3.241882e-14 -1.343056e-03
9.011953e-02 1.003369e-13 1.826115e-03
8.530376e-02 -2.157959e-14 6.257496e-03
7.646321e-02 -1.060678e-13 9.665470e-03
6.343988e-02 8.868329e-14 1.534324e-02
4.617515e-02 -1.344657e-14 1.675473e-02
2.579094e-02 8.487278e-14 2.577737e-02
0.000000e+00 -7.423239e-14 3.853252e-02
0.000000e+00 1.466391e-14 1.538887e-02
-3.072267e-02 -4.938227e-14 1.578696e-02
-5.631861e-02 -4.099186e-14 1.512087e-02
-7.828989e-02 -4.323534e-14 1.262768e-02
-9.530683e-02 -2.297370e-15 9.067740e-03
-1.074936e-01 5.422150e-14 4.884581e-03
-1.147873e-01 -6.610649e-14 8.280465e-04
-1.178280e-01 4.628456e-14 -2.811445e-03
-1.171586e-01 -4.612049e-14 -5.847851e-03
-1.134408e-01 -5.653483e-14 -8.447932e-03
-1.070060e-01 2.995310e-14 -1.074970e-02
-9.818417e-02 -6.723270e-14 -1.275883e-02
-8.734008e-02 1.478578e-14 -1.428401e-02
-7.508619e-02 -1.145689e-14 -1.516317e-02
-6.215141e-02 -6.334727e-15 -1.522511e-02
-4.939665e-02 -5.144996e-14 -1.457758e-02
-3.752601e-02 3.610722e-14 -1.321599e-02
-2.693254e-02 -3.023629e-14 -1.172164e-02
-1.772489e-02 3.504379e-14 -1.076770e-02
-9.525264e-03 -1.160545e-14 -1.032869e-02
-1.678845e-03 4.055299e-14 -1.029574e-02
6.464676e-03 -1.617053e-14 -1.025894e-02
1.524550e-02 -5.953736e-15 -9.975006e-03
2.466315e-02 7.797390e-15 -9.703774e-03
3.445171e-02 2.985440e-14 -9.677443e-03
4.421917e-02 -2.506451e-14 -9.596378e-03
5.355766e-02 -8.860866e-15 -9.353850e-03
6.219592e-02 5.569771e-14 -8.943135e-03
6.992236e-02 -4.698041e-14 -8.393298e-03
7.670020e-02 -6.454391e-14 -7.704484e-03
8.242114e-02 -2.749528e-14 -6.812297e-03
8.699278e-02 2.458068e-14 -5.591860e-03
9.014228e-02 -1.075633e-14 -3.840582e-03
9.143301e-02 4.876362e-14 -1.343056e-03
9.011953e-02 -1.912926e-15 1.826115e-03
8.530376e-02 4.047150e-15 6.257496e-03
7.646321e-02 -1.076729e-13 9.665470e-03
6.343988e-02 2.011084e-14 1.534324e-02
4.617515e-02 -4.289520e-15 1.675473e-02
2.579094e-02 4.400213e-14 2.577737e-02
0.000000e+00 -6.937898e-14 3.853252e-02
0.000000e+00 -6.116478e-14 1.538887e-02
-3.072267e-02 2.342880e-14 1.578696e-02
-5.631861e-02 -1.299620e-13 1.512087e-02
-7.828989e-02 5.914396e-14 1.262768e-02
-9.530683e-02 1.280176e-14 9.067740e-03
-1.074936e-01 2.273132e-15 4.884581e-03