# vtk DataFile Version 3.0
vtk output
ASCII
DATASET UNSTRUCTURED_GRID
POINTS 11767 float
0.000000e+00 0.000000e+00 0.000000e+00
1.460000e-02 0.000000e+00 0.000000e+00
2.920000e-02 0.000000e+00 0.000000e+00
4.380000e-02 0.000000e+00 0.000000e+00
5.840000e-02 0.000000e+00 0.000000e+00
7.300000e-02 0.000000e+00 0.000000e+00
8.760000e-02 0.000000e+00 0.000000e+00
1.022000e-01 0.000000e+00 0.000000e+00
1.168000e-01 0.000000e+00 0.000000e+00
1.314000e-01 0.000000e+00 0.000000e+00
1.460000e-01 0.000000e+00 0.000000e+00
1.606000e-01 0.000000e+00 0.000000e+00
1.752000e-01 0.000000e+00 0.000000e+00
1.898000e-01 0.000000e+00 0.000000e+00
2.044000e-01 0.000000e+00 0.000000e+00
2.190000e-01 0.000000e+00 0.000000e+00
2.336000e-01 0.000000e+00 0.000000e+00
2.482000e-01 0.000000e+00 0.000000e+00
2.628000e-01 0.000000e+00 0.000000e+00
2.774000e-01 0.000000e+00 0.000000e+00
2.920000e-01 0.000000e+00 0.000000e+00
3.066000e-01 0.000000e+00 0.000000e+00
3.212000e-01 0.000000e+00 0.000000e+00
3.358000e-01 0.000000e+00 0.000000e+00
3.504000e-01 0.000000e+00 0.000000e+00
3.650000e-01 0.000000e+00 0.000000e+00
3.796000e-01 0.000000e+00 0.000000e+00
3.942000e-01 0.000000e+00 0.000000e+00
4.088000e-01 0.000000e+00 0.000000e+00
4.234000e-01 0.000000e+00 0.000000e+00
4.380000e-01 0.000000e+00 0.000000e+00
4.526000e-01 0.000000e+00 0.000000e+00
4.672000e-01 0.000000e+00 0.000000e+00
4.818000e-01 0.000000e+00 0.000000e+00
4.964000e-01 0.000000e+00 0.000000e+00
5.110000e-01 0.000000e+00 0.000000e+00
5.256000e-01 0.000000e+00 0.000000e+00
5.402000e-01 0.000000e+00 0.000000e+00
5.548000e-01 0.000000e+00 0.000000e+00
5.694000e-01 0.000000e+00 0.000000e+00
5.840000e-01 0.000000e+00 0.000000e+00
0.000000e+00 1.460000e-02 0.000000e+00
1.460000e-02 1.460000e-02 0.000000e+00
2.920000e-02 1.460000e-02 0.000000e+00
4.380000e-02 1.460000e-02 0.000000e+00
5.840000e-02 1.460000e-02 0.000000e+00
7.300000e-02 1.460000e-02 0.000000e+00
8.760000e-02 1.460000e-02 0.000000e+00
1.022000e-01 1.460000e-02 0.000000e+00
1.168000e-01 1.460000e-02 0.000000e+00
1.314000e-01 1.460000e-02 0.000000e+00
1.460000e-01 1.460000e-02 0.000000e+00
1.606000e-01 1.460000e-02 0.000000e+00
1.752000e-01 1.460000e-02 0.000000e+00
1.898000e-01 1.460000e-02 0.000000e+00
2.044000e-01 1.460000e-02 0.000000e+00
2.190000e-01 1.460000e-02 0.000000e+00
2.336000e-01 1.460000e-02 0.000000e+00
2.482000e-01 1.460000e-02 0.000000e+00
2.628000e-01 1.460000e-02 0.000000e+00
2.774000e-01 1.460000e-02 0.000000e+00
2.920000e-01 1.460000e-02 0.000000e+00
3.066000e-01 1.460000e-02 0.000000e+00
3.212000e-01 1.460000e-02 0.000000e+00
3.358000e-01 1.460000e-02 0.000000e+00
3.504000e-01 1.460000e-02 0.000000e+00
3.650000e-01 1.460000e-02 0.000000e+00
3.796000e-01 1.460000e-02 0.000000e+00
3.942000e-01 1.460000e-02 0.000000e+00
4.088000e-01 1.460000e-02 0.000000e+00
4.234000e-01 1.460000e-02 0.000000e+00
4.380000e-01 1.460000e-02 0.000000e+00
4.526000e-01 1.460000e-02 0.000000e+00
4.672000e-01 1.460000e-02 0.000000e+00
4.818000e-01 1.460000e-02 0.000000e+00
4.964000e-01 1.460000e-02 0.000000e+00
5.110000e-01 1.460000e-02 0.000000e+00
5.256000e-01 1.460000e-02 0.000000e+00
5.402000e-01 1.460000e-02 0.000000e+00
5.548000e-01 1.460000e-02 0.000000e+00
5.694000e-01 1.460000e-02 0.000000e+00
5.840000e-01 1.460000e-02 0.000000e+00
0.000000e+00 2.920000e-02 0.000000e+00
1.460000e-02 2.920000e-02 0.000000e+00
2.920000e-02 2.920000e-02 0.000000e+00
4.380000e-02 2.920000e-02 0.000000e+00
5.840000e-02 2.920000e-02 0.000000e+00
7.300000e-02 2.920000e-02 0.000000e+00
8.760000e-02 2.920000e-02 0.000000e+00
1.022000e-01 2.920000e-02 0.000000e+00
1.168000e-01 2.920000e-02 0.000000e+00
1.314000e-01 2.920000e-02 0.000000e+00
1.460000e-01 2.920000e-02 0.000000e+00
1.606000e-01 2.920000e-02 0.000000e+00
1.752000e-01 2.920000e-02 0.000000e+00
1.898000e-01 2.920000e-02 0.000000e+00
2.044000e-01 2.920000e-02 0.000000e+00
2.190000e-01 2.920000e-02 0.000000e+00
2.336000e-01 2.920000e-02 0.000000e+00
2.482000e-01 2.920000e-02 0.000000e+00
2.628000e-01 2.920000e-02 0.000000e+00
2.774000e-01 2.920000e-02 0.000000e+00
2.920000e-01 2.920000e-02 0.000000e+00
3.066000e-01 2.920000e-02 0.000000e+00
3.212000e-01 2.920000e-02 0.000000e+00
3.358000e-01 2.920000e-02 0.000000e+00
3.504000e-01 2.920000e-02 0.000000e+00
3.650000e-01 2.920000e-02 0.000000e+00
3.796000e-01 2.920000e-02 0.000000e+00
3.942000e-01 2.920000e-02 0.000000e+00
4.088000e-01 2.920000e-02 0.000000e+00
4.234000e-01 2.920000e-02 0.000000e+00
4.380000e-01 2.920000e-02 0.000000e+00
4.526000e-01 2.920000e-02 0.000000e+00
4.672000e-01 2.920000e-02 0.000000e+00
4.818000e-01 2.920000e-02 0.000000e+00
4.964000e-01 2.920000e-02 0.000000e+00
5.110000e-01 2.920000e-02 0.000000e+00
5.256000e-01 2.920000e-02 0.000000e+00
5.402000e-01 2.920000e-02 0.000000e+00
5.548000e-01 2.920000e-02 0.000000e+00
5.694000e-01 2.920000e-02 0.000000e+00
5.840000e-01 2.920000e-02 0.000000e+00
0.000000e+00 4.380000e-02 0.000000e+00
1.460000e-02 4.380000e-02 0.000000e+00
2.920000e-02 4.380000e-02 0.000000e+00
4.380000e-02 4.380000e-02 0.000000e+00
5.840000e-02 4.380000e-02 0.000000e+00
7.300000e-02 4.380000e-02 0.000000e+00
8.760000e-02 4.380000e-02 0.000000e+00
1.022000e-01 4.380000e-02 0.000000e+00
1.168000e-01 4.380000e-02 0.000000e+00
1.314000e-01 4.380000e-02 0.000000e+00
1.460000e-01 4.380000e-02 0.000000e+00
1.606000e-01 4.380000e-02 0.000000e+00
1.752000e-01 4.380000e-02 0.000000e+00
1.898000e-01 4.380000e-02 0.000000e+00
2.044000e-01 4.380000e-02 0.000000e+00
2.190000e-01 4.380000e-02 0.000000e+00
2.336000e-01 4.380000e-02 0.000000e+00
2.482000e-01 4.380000e-02 0.000000e+00
2.628000e-01 4.380000e-02 0.000000e+00
2.774000e-01 4.380000e-02 0.000000e+00
2.920000e-01 4.380000e-02 0.000000e+00
3.066000e-01 4.380000e-02 0.000000e+00
3.212000e-01 4.380000e-02 0.000000e+00
3.358000e-01 4.380000e-02 0.000000e+00
3.504000e-01 4.380000e-02 0.000000e+00
3.650000e-01 4.380000e-02 0.000000e+00
3.796000e-01 4.380000e-02 0.000000e+00
3.942000e-01 4.380000e-02 0.000000e+00
4.088000e-01 4.380000e-02 0.000000e+00
4.234000e-01 4.380000e-02 0.000000e+00
4.380000e-01 4.380000e-02 0.000000e+00
4.526000e-01 4.380000e-02 0.000000e+00
4.672000e-01 4.380000e-02 0.000000e+00
4.818000e-01 4.380000e-02 0.000000e+00
4.964000e-01 4.380000e-02 0.000000e+00
5.110000e-01 4.380000e-02 0.000000e+00
5.256000e-01 4.380000e-02 0.000000e+00
5.402000e-01 4.380000e-02 0.000000e+00
5.548000e-01 4.380000e-02 0.000000e+00
5.694000e-01 4.380000e-02 0.000000e+00
5.840000e-01 4.380000e-02 0.000000e+00
0.000000e+00 5.840000e-02 0.000000e+00
1.460000e-02 5.840000e-02 0.000000e+00
2.920000e-02 5.840000e-02 0.000000e+00
4.380000e-02 5.840000e-02 0.000000e+00
5.840000e-02 5.840000e-02 0.000000e+00
7.300000e-02 5.840000e-02 0.000000e+00
8.760000e-02 5.840000e-02 0.000000e+00
1.022000e-01 5.840000e-02 0.000000e+00
1.168000e-01 5.840000e-02 0.000000e+00
1.314000e-01 5.840000e-02 0.000000e+00
1.460000e-01 5.840000e-02 0.000000e+00
1.606000e-01 5.840000e-02 0.000000e+00
1.752000e-01 5.840000e-02 0.000000e+00
1.898000e-01 5.840000e-02 0.000000e+00
2.044000e-01 5.840000e-02 0.000000e+00
2.190000e-01 5.840000e-02 0.000000e+00
2.336000e-01 5.840000e-02 0.000000e+00
2.482000e-01 5.840000e-02 0.000000e+00
2.628000e-01 5.840000e-02 0.000000e+00
2.774000e-01 5.840000e-02 0.000000e+00
2.920000e-01 5.840000e-02 0.000000e+00
3.066000e-01 5.840000e-02 0.000000e+00
3.212000e-01 5.840000e-02 0.000000e+00
3.358000e-01 5.840000e-02 0.000000e+00
3.504000e-01 5.840000e-02 0.000000e+00
3.650000e-01 5.840000e-02 0.000000e+00
3.796000e-01 5.840000e-02 0.000000e+00
3.942000e-01 5.840000e-02 0.000000e+00
4.088000e-01 5.840000e-02 0.000000e+00
4.234000e-01 5.840000e-02 0.000000e+00
4.380000e-01 5.840000e-02 0.000000e+00
4.526000e-01 5.840000e-02 0.000000e+00
4.672000e-01 5.840000e-02 0.000000e+00
4.818000e-01 5.840000e-02 0.000000e+00
4.964000e-01 5.840000e-02 0.000000e+00
5.110000e-01 5.840000e-02 0.000000e+00
5.256000e-01 5.840000e-02 0.000000e+00
5.402000e-01 5.840000e-02 0.000000e+00
5.548000e-01 5.840000e-02 0.000000e+00
5.694000e-01 5.840000e-02 0.000000e+00
5.840000e-01 5.840000e-02 0.000000e+00
0.000000e+00 7.300000e-02 0.000000e+00
1.460000e-02 7.300000e-02 0.000000e+00
2.920000e-02 7.300000e-02 0.000000e+00
4.380000e-02 7.300000e-02 0.000000e+00
5.840000e-02 7.300000e-02 0.000000e+00
7.300000e-02 7.300000e-02 0.000000e+00
8.760000e-02 7.300000e-02 0.000000e+00
1.022000e-01 7.300000e-02 0.000000e+00
1.168000e-01 7.300000e-02 0.000000e+00
1.314000e-01 7.300000e-02 0.000000e+00
1.460000e-01 7.300000e-02 0.000000e+00
1.606000e-01 7.300000e-02 0.000000e+00
1.752000e-01 7.300000e-02 0.000000e+00
1.898000e-01 7.300000e-02 0.000000e+00
2.044000e-01 7.300000e-02 0.000000e+00
2.190000e-01 7.300000e-02 0.000000e+00
2.336000e-01 7.300000e-02 0.000000e+00
2.482000e-01 7.300000e-02 0.000000e+00
2.628000e-01 7.300000e-02 0.000000e+00
2.774000e-01 7.300000e-02 0.000000e+00
2.920000e-01 7.300000e-02 0.000000e+00
3.066000e-01 7.300000e-02 0.000000e+00
3.212000e-01 7.300000e-02 0.000000e+00
3.358000e-01 7.300000e-02 0.000000e+00
3.504000e-01 7.300000e-02 0.000000e+00
3.650000e-01 7.300000e-02 0.000000e+00
3.796000e-01 7.300000e-02 0.000000e+00
3.942000e-01 7.300000e-02 0.000000e+00
4.088000e-01 7.300000e-02 0.000000e+00
4.234000e-01 7.300000e-02 0.000000e+00
4.380000e-01 7.300000e-02 0.000000e+00
4.526000e-01 7.300000e-02 0.000000e+00
4.672000e-01 7.300000e-02 0.000000e+00
4.818000e-01 7.300000e-02 0.000000e+00
4.964000e-01 7.300000e-02 0.000000e+00
5.110000e-01 7.300000e-02 0.000000e+00
5.256000e-01 7.300000e-02 0.000000e+00
5.402000e-01 7.300000e-02 0.000000e+00
5.548000e-01 7.300000e-02 0.000000e+00
5.694000e-01 7.300000e-02 0.000000e+00
5.840000e-01 7.300000e-02 0.000000e+00
0.000000e+00 8.760000e-02 0.000000e+00
1.460000e-02 8.760000e-02 0.000000e+00
2.920000e-02 8.760000e-02 0.000000e+00
4.380000e-02 8.760000e-02 0.000000e+00
5.840000e-02 8.760000e-02 0.000000e+00
7.300000e-02 8.760000e-02 0.000000e+00
8.760000e-02 8.760000e-02 0.000000e+00
1.022000e-01 8.760000e-02 0.000000e+00
[...]
POINT_DATA 11767
VECTORS Velocity float
0.000000e+00 0.000000e+00 0.000000e+00
2.193848e-02 0.000000e+00 0.000000e+00
3.475842e-02 0.000000e+00 0.000000e+00
4.453440e-02 0.000000e+00 0.000000e+00
5.362040e-02 0.000000e+00 0.000000e+00
6.345632e-02 0.000000e+00 0.000000e+00
7.386740e-02 0.000000e+00 0.000000e+00
8.465159e-02 0.000000e+00 0.000000e+00
9.522325e-02 0.000000e+00 0.000000e+00
1.052287e-01 0.000000e+00 0.000000e+00
1.141706e-01 0.000000e+00 0.000000e+00
1.216733e-01 0.000000e+00 0.000000e+00
1.275079e-01 0.000000e+00 0.000000e+00
1.318412e-01 0.000000e+00 0.000000e+00
1.350633e-01 0.000000e+00 0.000000e+00
1.376010e-01 0.000000e+00 0.000000e+00
1.396205e-01 0.000000e+00 0.000000e+00
1.409403e-01 0.000000e+00 0.000000e+00
1.412682e-01 0.000000e+00 0.000000e+00
1.405802e-01 0.000000e+00 0.000000e+00
1.390388e-01 0.000000e+00 0.000000e+00
1.369380e-01 0.000000e+00 0.000000e+00
1.345486e-01 0.000000e+00 0.000000e+00
1.321023e-01 0.000000e+00 0.000000e+00
1.297112e-01 0.000000e+00 0.000000e+00
1.274916e-01 0.000000e+00 0.000000e+00
1.254648e-01 0.000000e+00 0.000000e+00
1.237035e-01 0.000000e+00 0.000000e+00
1.221317e-01 0.000000e+00 0.000000e+00
1.207520e-01 0.000000e+00 0.000000e+00
1.193484e-01 0.000000e+00 0.000000e+00
1.177946e-01 0.000000e+00 0.000000e+00
1.157527e-01 0.000000e+00 0.000000e+00
1.130077e-01 0.000000e+00 0.000000e+00
1.091496e-01 0.000000e+00 0.000000e+00
1.041515e-01 0.000000e+00 0.000000e+00
9.664583e-02 0.000000e+00 0.000000e+00
8.815322e-02 0.000000e+00 0.000000e+00
7.184655e-02 0.000000e+00 0.000000e+00
5.266982e-02 0.000000e+00 0.000000e+00
0.000000e+00 0.000000e+00 0.000000e+00
0.000000e+00 -4.508325e-14 0.000000e+00
2.193848e-02 -2.634770e-14 0.000000e+00
3.475842e-02 -1.522645e-14 0.000000e+00
4.453440e-02 -5.082587e-15 0.000000e+00
5.362040e-02 -8.121948e-15 0.000000e+00
6.345632e-02 2.118499e-14 0.000000e+00
7.386740e-02 -1.518753e-14 0.000000e+00
8.465159e-02 1.356313e-14 0.000000e+00
9.522325e-02 8.118766e-16 0.000000e+00
1.052287e-01 -9.669663e-15 0.000000e+00
1.141706e-01 2.295862e-14 0.000000e+00
1.216733e-01 -4.655111e-14 0.000000e+00
1.275079e-01 3.333202e-14 0.000000e+00
1.318412e-01 -4.613835e-14 0.000000e+00
1.350633e-01 -1.115741e-13 0.000000e+00
1.376010e-01 -6.775912e-14 0.000000e+00
1.396205e-01 -1.594472e-13 0.000000e+00
1.409403e-01 -1.924698e-13 0.000000e+00
1.412682e-01 -1.708137e-13 0.000000e+00
1.405802e-01 -2.960684e-13 0.000000e+00
1.390388e-01 -2.912368e-13 0.000000e+00
1.369380e-01 -3.346677e-13 0.000000e+00
1.345486e-01 -3.645362e-13 0.000000e+00
1.321023e-01 -3.209469e-13 0.000000e+00
1.297112e-01 -4.156196e-13 0.000000e+00
1.274916e-01 -3.500572e-13 0.000000e+00
1.254648e-01 -4.514400e-13 0.000000e+00
1.237035e-01 -4.646503e-13 0.000000e+00
1.221317e-01 -5.021383e-13 0.000000e+00
1.207520e-01 -5.270075e-13 0.000000e+00
1.193484e-01 -6.043442e-13 0.000000e+00
1.177946e-01 -5.902252e-13 0.000000e+00
1.157527e-01 -6.853617e-13 0.000000e+00
1.130077e-01 -7.142093e-13 0.000000e+00
1.091496e-01 -6.754631e-13 0.000000e+00
1.041515e-01 -4.719902e-13 0.000000e+00
9.664583e-02 -4.031226e-13 0.000000e+00
8.815322e-02 -1.880539e-13 0.000000e+00
7.184655e-02 -1.901631e-13 0.000000e+00
5.266982e-02 -1.183741e-13 0.000000e+00
0.000000e+00 -2.240120e-13 0.000000e+00
0.000000e+00 -7.937064e-14 0.000000e+00
2.193848e-02 -5.912604e-14 0.000000e+00
3.475842e-02 -2.581615e-14 0.000000e+00
4.453440e-02 -1.732795e-14 0.000000e+00
5.362040e-02 -2.705788e-14 0.000000e+00
6.345632e-02 2.752766e-14 0.000000e+00
7.386740e-02 -2.685266e-14 0.000000e+00
8.465159e-02 1.149486e-14 0.000000e+00
9.522325e-02 3.580998e-15 0.000000e+00
1.052287e-01 -3.060643e-14 0.000000e+00
1.141706e-01 4.270155e-14 0.000000e+00
1.216733e-01 -8.417499e-14 0.000000e+00
1.275079e-01 5.856705e-14 0.000000e+00
1.318412e-01 -5.469788e-14 0.000000e+00
1.350633e-01 -1.398833e-13 0.000000e+00
1.376010e-01 -6.282170e-14 0.000000e+00
1.396205e-01 -1.871064e-13 0.000000e+00
1.409403e-01 -2.509410e-13 0.000000e+00
1.412682e-01 -2.076100e-13 0.000000e+00
1.405802e-01 -4.118394e-13 0.000000e+00
1.390388e-01 -3.950376e-13 0.000000e+00
1.369380e-01 -4.716313e-13 0.000000e+00
1.345486e-01 -4.959976e-13 0.000000e+00
1.321023e-01 -4.395479e-13 0.000000e+00
1.297112e-01 -5.771187e-13 0.000000e+00
1.274916e-01 -4.990937e-13 0.000000e+00
1.254648e-01 -6.128563e-13 0.000000e+00
1.237035e-01 -6.270700e-13 0.000000e+00
1.221317e-01 -6.911718e-13 0.000000e+00
1.207520e-01 -6.901385e-13 0.000000e+00
1.193484e-01 -8.039301e-13 0.000000e+00
1.177946e-01 -7.879731e-13 0.000000e+00
1.157527e-01 -8.864755e-13 0.000000e+00
1.130077e-01 -9.103285e-13 0.000000e+00
1.091496e-01 -8.367235e-13 0.000000e+00
1.041515e-01 -6.652289e-13 0.000000e+00
9.664583e-02 -5.241501e-13 0.000000e+00
8.815322e-02 -3.479539e-13 0.000000e+00
7.184655e-02 -2.791358e-13 0.000000e+00
5.266982e-02 -2.374376e-13 0.000000e+00
0.000000e+00 -3.757638e-13 0.000000e+00
0.000000e+00 -5.893664e-15 0.000000e+00
2.193848e-02 -3.436340e-14 0.000000e+00
3.475842e-02 -2.828248e-14 0.000000e+00
4.453440e-02 -2.142278e-14 0.000000e+00
5.362040e-02 -3.741914e-14 0.000000e+00
6.345632e-02 2.620921e-14 0.000000e+00
7.386740e-02 -2.973694e-14 0.000000e+00
8.465159e-02 1.489297e-14 0.000000e+00
9.522325e-02 1.006768e-14 0.000000e+00
1.052287e-01 -4.002839e-14 0.000000e+00
1.141706e-01 4.508032e-14 0.000000e+00
1.216733e-01 -9.506995e-14 0.000000e+00
1.275079e-01 6.912099e-14 0.000000e+00
1.318412e-01 -5.535988e-14 0.000000e+00
1.350633e-01 -1.275471e-13 0.000000e+00
1.376010e-01 -2.847143e-14 0.000000e+00
1.396205e-01 -1.542820e-13 0.000000e+00
1.409403e-01 -2.149011e-13 0.000000e+00
1.412682e-01 -1.752743e-13 0.000000e+00
1.405802e-01 -3.923253e-13 0.000000e+00
1.390388e-01 -3.754066e-13 0.000000e+00
1.369380e-01 -4.378352e-13 0.000000e+00
1.345486e-01 -4.660742e-13 0.000000e+00
1.321023e-01 -3.913102e-13 0.000000e+00
1.297112e-01 -5.482613e-13 0.000000e+00
1.274916e-01 -4.529890e-13 0.000000e+00
1.254648e-01 -5.667760e-13 0.000000e+00
1.237035e-01 -5.522570e-13 0.000000e+00
1.221317e-01 -6.236373e-13 0.000000e+00
1.207520e-01 -5.960669e-13 0.000000e+00
1.193484e-01 -7.057611e-13 0.000000e+00
1.177946e-01 -6.820361e-13 0.000000e+00
1.157527e-01 -7.636136e-13 0.000000e+00
1.130077e-01 -7.200092e-13 0.000000e+00
1.091496e-01 -6.909671e-13 0.000000e+00
1.041515e-01 -5.678956e-13 0.000000e+00
9.664583e-02 -4.938670e-13 0.000000e+00
8.815322e-02 -3.507493e-13 0.000000e+00
7.184655e-02 -3.496932e-13 0.000000e+00
5.266982e-02 -2.296094e-13 0.000000e+00
0.000000e+00 -4.018759e-13 0.000000e+00
0.000000e+00 -1.132210e-14 0.000000e+00
2.193848e-02 -3.931155e-14 0.000000e+00
3.475842e-02 -3.081997e-14 0.000000e+00
4.453440e-02 -1.653923e-14 0.000000e+00
5.362040e-02 -2.162095e-14 0.000000e+00
6.345632e-02 2.413886e-14 0.000000e+00
7.386740e-02 -2.205939e-14 0.000000e+00
8.465159e-02 1.127798e-14 0.000000e+00
9.522325e-02 1.469495e-14 0.000000e+00
1.052287e-01 -3.972685e-14 0.000000e+00
1.141706e-01 4.272613e-14 0.000000e+00
1.216733e-01 -8.821983e-14 0.000000e+00
1.275079e-01 5.361026e-14 0.000000e+00
1.318412e-01 -6.143042e-14 0.000000e+00
1.350633e-01 -1.263340e-13 0.000000e+00
1.376010e-01 -4.329364e-14 0.000000e+00
1.396205e-01 -1.482294e-13 0.000000e+00
1.409403e-01 -2.032102e-13 0.000000e+00
1.412682e-01 -1.644045e-13 0.000000e+00
1.405802e-01 -3.550634e-13 0.000000e+00
1.390388e-01 -3.406568e-13 0.000000e+00
1.369380e-01 -3.823344e-13 0.000000e+00
1.345486e-01 -4.031281e-13 0.000000e+00
1.321023e-01 -3.404194e-13 0.000000e+00
1.297112e-01 -4.676292e-13 0.000000e+00
1.274916e-01 -3.806262e-13 0.000000e+00
1.254648e-01 -4.753667e-13 0.000000e+00
1.237035e-01 -4.709011e-13 0.000000e+00
1.221317e-01 -5.160206e-13 0.000000e+00
1.207520e-01 -5.093024e-13 0.000000e+00
1.193484e-01 -5.954355e-13 0.000000e+00
1.177946e-01 -5.674579e-13 0.000000e+00
1.157527e-01 -6.349549e-13 0.000000e+00
1.130077e-01 -6.109836e-13 0.000000e+00
1.091496e-01 -5.826784e-13 0.000000e+00
1.041515e-01 -4.765692e-13 0.000000e+00
9.664583e-02 -4.034348e-13 0.000000e+00
8.815322e-02 -2.955975e-13 0.000000e+00
7.184655e-02 -2.635864e-13 0.000000e+00
5.266982e-02 -2.205789e-13 0.000000e+00
0.000000e+00 -3.673461e-13 0.000000e+00
0.000000e+00 -6.343492e-14 0.000000e+00
2.193848e-02 -7.817983e-14 0.000000e+00
3.475842e-02 -2.715249e-14 0.000000e+00
4.453440e-02 -5.199674e-15 0.000000e+00
5.362040e-02 -1.624364e-14 0.000000e+00
6.345632e-02 1.501867e-14 0.000000e+00
7.386740e-02 -2.150690e-14 0.000000e+00
8.465159e-02 8.340886e-15 0.000000e+00
9.522325e-02 8.985557e-15 0.000000e+00
1.052287e-01 -2.564049e-14 0.000000e+00
1.141706e-01 2.080477e-14 0.000000e+00
1.216733e-01 -5.479255e-14 0.000000e+00
1.275079e-01 1.976659e-14 0.000000e+00
1.318412e-01 -5.582695e-14 0.000000e+00
1.350633e-01 -1.055533e-13 0.000000e+00
1.376010e-01 -5.502916e-14 0.000000e+00
1.396205e-01 -1.293506e-13 0.000000e+00
1.409403e-01 -1.550657e-13 0.000000e+00
1.412682e-01 -1.327000e-13 0.000000e+00
1.405802e-01 -2.458914e-13 0.000000e+00
1.390388e-01 -2.435346e-13 0.000000e+00
1.369380e-01 -2.540931e-13 0.000000e+00
1.345486e-01 -2.792448e-13 0.000000e+00
1.321023e-01 -2.368836e-13 0.000000e+00
1.297112e-01 -3.115500e-13 0.000000e+00
1.274916e-01 -2.525223e-13 0.000000e+00
1.254648e-01 -3.234405e-13 0.000000e+00
1.237035e-01 -3.227182e-13 0.000000e+00
1.221317e-01 -3.429253e-13 0.000000e+00
1.207520e-01 -3.584069e-13 0.000000e+00
1.193484e-01 -4.160231e-13 0.000000e+00
1.177946e-01 -3.886813e-13 0.000000e+00
1.157527e-01 -4.541401e-13 0.000000e+00
1.130077e-01 -4.362294e-13 0.000000e+00
1.091496e-01 -4.461687e-13 0.000000e+00
1.041515e-01 -3.010899e-13 0.000000e+00
9.664583e-02 -2.930537e-13 0.000000e+00
8.815322e-02 -1.390347e-13 0.000000e+00
7.184655e-02 -1.850978e-13 0.000000e+00
5.266982e-02 -8.095524e-14 0.000000e+00
0.000000e+00 -1.581783e-13 0.000000e+00
0.000000e+00 0.000000e+00 0.000000e+00
2.193848e-02 0.000000e+00 0.000000e+00
3.475842e-02 0.000000e+00 0.000000e+00
4.453440e-02 0.000000e+00 0.000000e+00
5.362040e-02 0.000000e+00 0.000000e+00
6.345632e-02 0.000000e+00 0.000000e+00
7.386740e-02 0.000000e+00 0.000000e+00
8.465159e-02 0.000000e+00 0.000000e+00
9.522325e-02 0.000000e+00 0.000000e+00
1.052287e-01 0.000000e+00 0.000000e+00
1.141706e-01 0.000000e+00 0.000000e+00
1.216733e-01 0.000000e+00 0.000000e+00
1.275079e-01 0.000000e+00 0.000000e+00
1.318412e-01 0.000000e+00 0.000000e+00
1.350633e-01 0.000000e+00 0.000000e+00
1.376010e-01 0.000000e+00 0.000000e+00
1.396205e-01 0.000000e+00 0.000000e+00
1.409403e-01 0.000000e+00 0.000000e+00
1.412682e-01 0.000000e+00 0.000000e+00
1.405802e-01 0.000000e+00 0.000000e+00
1.390388e-01 0.000000e+00 0.000000e+00
1.369380e-01 0.000000e+00 0.000000e+00
1.345486e-01 0.000000e+00 0.000000e+00
1.321023e-01 0.000000e+00 0.000000e+00
1.297112e-01 0.000000e+00 0.000000e+00
1.274916e-01 0.000000e+00 0.000000e+00
1.254648e-01 0.000000e+00 0.000000e+00
1.237035e-01 0.000000e+00 0.000000e+00
1.221317e-01 0.000000e+00 0.000000e+00
1.207520e-01 0.000000e+00 0.000000e+00
1.193484e-01 0.000000e+00 0.000000e+00
1.177946e-01 0.000000e+00 0.000000e+00
1.157527e-01 0.000000e+00 0.000000e+00
1.130077e-01 0.000000e+00 0.000000e+00
1.091496e-01 0.000000e+00 0.000000e+00
1.041515e-01 0.000000e+00 0.000000e+00
9.664583e-02 0.000000e+00 0.000000e+00
8.815322e-02 0.000000e+00 0.000000e+00
7.184655e-02 0.000000e+00 0.000000e+00
5.266982e-02 0.000000e+00 0.000000e+00
0.000000e+00 0.000000e+00 0.000000e+00
0.000000e+00 0.000000e+00 -1.957203e-02
3.660869e-03 0.000000e+00 -1.570306e-02
9.562517e-03 0.000000e+00 -1.131798e-02
1.551304e-02 0.000000e+00 -1.069343e-02
2.248026e-02 0.000000e+00 -1.115711e-02
3.040139e-02 0.000000e+00 -1.200995e-02
3.903964e-02 0.000000e+00 -1.244819e-02
4.765068e-02 0.000000e+00 -1.242758e-02
5.577373e-02 0.000000e+00 -1.187303e-02
6.272631e-02 0.000000e+00 -1.088823e-02
6.828156e-02 0.000000e+00 -9.544496e-03
7.233515e-02 0.000000e+00 -7.989011e-03
7.500831e-02 0.000000e+00 -6.450290e-03
7.644493e-02 0.000000e+00 -5.198763e-03
7.696237e-02 0.000000e+00 -4.360675e-03
7.688724e-02 0.000000e+00 -3.860041e-03
7.653940e-02 0.000000e+00 -3.432663e-03
7.611642e-02 0.000000e+00 -2.862425e-03
7.578193e-02 0.000000e+00 -2.207821e-03
7.557613e-02 0.000000e+00 -1.607614e-03
7.543768e-02 0.000000e+00 -1.136938e-03
7.522303e-02 0.000000e+00 -8.042433e-04
7.474574e-02 0.000000e+00 -5.952347e-04
7.393218e-02 0.000000e+00 -4.970118e-04
7.283430e-02 0.000000e+00 -5.007609e-04
7.156143e-02 0.000000e+00 -6.008413e-04
7.028645e-02 0.000000e+00 -7.748197e-04
6.908928e-02 0.000000e+00 -9.945197e-04
6.814559e-02 0.000000e+00 -1.212985e-03
6.741968e-02 0.000000e+00 -1.381663e-03
6.699830e-02 0.000000e+00 -1.383924e-03
6.654304e-02 0.000000e+00 -1.160658e-03
6.588972e-02 0.000000e+00 -5.821672e-04
6.418945e-02 0.000000e+00 4.789943e-04
6.116320e-02 0.000000e+00 1.634048e-03
5.598920e-02 0.000000e+00 3.927773e-03
4.898538e-02 0.000000e+00 4.868516e-03
4.003235e-02 0.000000e+00 9.608485e-03
2.952157e-02 0.000000e+00 1.078905e-02
1.772142e-02 0.000000e+00 2.559890e-02
0.000000e+00 0.000000e+00 4.498031e-02
0.000000e+00 -4.351647e-14 -1.957203e-02
3.660869e-03 -2.600429e-14 -1.570306e-02
9.562517e-03 8.119533e-15 -1.131798e-02
1.551304e-02 1.264369e-14 -1.069343e-02
2.248026e-02 -6.699119e-16 -1.115711e-02
3.040139e-02 5.300963e-15 -1.200995e-02
3.903964e-02 -6.880458e-15 -1.244819e-02
4.765068e-02 -1.125366e-14 -1.242758e-02
5.577373e-02 -3.261588e-14 -1.187303e-02
6.272631e-02 -3.971776e-14 -1.088823e-02
6.828156e-02 -5.497096e-14 -9.544496e-03
7.233515e-02 -5.785578e-14 -7.989011e-03
7.500831e-02 -5.824864e-14 -6.450290e-03
7.644493e-02 -7.397214e-14 -5.198763e-03
7.696237e-02 -4.245984e-14 -4.360675e-03
7.688724e-02 -1.128307e-13 -3.860041e-03
7.653940e-02 -1.937961e-13 -3.432663e-03
7.611642e-02 -2.423739e-13 -2.862425e-03
7.578193e-02 -3.361332e-13 -2.207821e-03
7.557613e-02 -2.297229e-13 -1.607614e-03
7.543768e-02 -3.722617e-14 -1.136938e-03
7.522303e-02 1.206116e-13 -8.042433e-04
7.474574e-02 3.616231e-13 -5.952347e-04
7.393218e-02 3.556580e-13 -4.970118e-04
7.283430e-02 4.907324e-13 -5.007609e-04
7.156143e-02 4.277083e-13 -6.008413e-04
7.028645e-02 3.839896e-13 -7.748197e-04
6.908928e-02 4.019951e-13 -9.945197e-04
6.814559e-02 3.151923e-13 -1.212985e-03
6.741968e-02 2.717057e-13 -1.381663e-03
6.699830e-02 2.383871e-13 -1.383924e-03
6.654304e-02 2.262942e-13 -1.160658e-03
6.588972e-02 2.591341e-13 -5.821672e-04
6.418945e-02 4.902995e-13 4.789943e-04
6.116320e-02 3.749284e-13 1.634048e-03
5.598920e-02 3.593203e-13 3.927773e-03
4.898538e-02 1.692636e-13 4.868516e-03
4.003235e-02 1.799952e-13 9.608485e-03
2.952157e-02 1.253105e-14 1.078905e-02
1.772142e-02 2.012685e-13 2.559890e-02
0.000000e+00 5.584690e-14 4.498031e-02
0.000000e+00 -7.065269e-14 -1.957203e-02
3.660869e-03 -6.317534e-14 -1.570306e-02
9.562517e-03 -1.091262e-15 -1.131798e-02
1.551304e-02 2.933014e-15 -1.069343e-02
2.248026e-02 -8.293453e-15 -1.115711e-02
3.040139e-02 8.131935e-15 -1.200995e-02
3.903964e-02 -8.968641e-15 -1.244819e-02
4.765068e-02 -1.492024e-14 -1.242758e-02
5.577373e-02 -3.618543e-14 -1.187303e-02
6.272631e-02 -4.057774e-14 -1.088823e-02
6.828156e-02 -6.091312e-14 -9.544496e-03
7.233515e-02 -7.170413e-14 -7.989011e-03
7.500831e-02 -7.224457e-14 -6.450290e-03
7.644493e-02 -1.016436e-13 -5.198763e-03
7.696237e-02 -5.652725e-14 -4.360675e-03
7.688724e-02 -1.507576e-13 -3.860041e-03
7.653940e-02 -2.172480e-13 -3.432663e-03
7.611642e-02 -2.839768e-13 -2.862425e-03
7.578193e-02 -4.086563e-13 -2.207821e-03
7.557613e-02 -3.318312e-13 -1.607614e-03
7.543768e-02 -1.544499e-13 -1.136938e-03
7.522303e-02 -5.935227e-14 -8.042433e-04
7.474574e-02 2.307008e-13 -5.952347e-04
7.393218e-02 1.493374e-13 -4.970118e-04
7.283430e-02 3.588862e-13 -5.007609e-04
7.156143e-02 2.749381e-13 -6.008413e-04
7.028645e-02 2.599852e-13 -7.748197e-04
6.908928e-02 2.389644e-13 -9.945197e-04
6.814559e-02 1.876347e-13 -1.212985e-03
6.741968e-02 1.043951e-13 -1.381663e-03
6.699830e-02 1.081969e-13 -1.383924e-03
6.654304e-02 1.281582e-13 -1.160658e-03
6.588972e-02 1.541605e-13 -5.821672e-04
6.418945e-02 4.091768e-13 4.789943e-04
6.116320e-02 3.349082e-13 1.634048e-03
5.598920e-02 3.671031e-13 3.927773e-03
4.898538e-02 1.904216e-13 4.868516e-03
4.003235e-02 2.153973e-13 9.608485e-03
2.952157e-02 1.162282e-13 1.078905e-02
1.772142e-02 2.336542e-13 2.559890e-02
0.000000e+00 1.213027e-13 4.498031e-02
0.000000e+00 -3.710865e-14 -1.957203e-02
3.660869e-03 -5.345181e-14 -1.570306e-02
9.562517e-03 -1.436676e-14 -1.131798e-02
1.551304e-02 -8.715323e-15 -1.069343e-02
2.248026e-02 -1.868245e-14 -1.115711e-02
3.040139e-02 8.109380e-15 -1.200995e-02
3.903964e-02 -1.698166e-14 -1.244819e-02
4.765068e-02 -1.509765e-14 -1.242758e-02
5.577373e-02 -2.658871e-14 -1.187303e-02
6.272631e-02 -2.316305e-14 -1.088823e-02
6.828156e-02 -4.844906e-14 -9.544496e-03
7.233515e-02 -5.584562e-14 -7.989011e-03
7.500831e-02 -6.579159e-14 -6.450290e-03
7.644493e-02 -1.028804e-13 -5.198763e-03
7.696237e-02 -5.024460e-14 -4.360675e-03
7.688724e-02 -1.263412e-13 -3.860041e-03
7.653940e-02 -1.542836e-13 -3.432663e-03
7.611642e-02 -1.932157e-13 -2.862425e-03
7.578193e-02 -3.313700e-13 -2.207821e-03
7.557613e-02 -3.053185e-13 -1.607614e-03
7.543768e-02 -2.336190e-13 -1.136938e-03
7.522303e-02 -2.547684e-13 -8.042433e-04
7.474574e-02 -5.749540e-14 -5.952347e-04
7.393218e-02 -1.995278e-13 -4.970118e-04
7.283430e-02 5.042361e-15 -5.007609e-04
7.156143e-02 -5.900378e-14 -6.008413e-04
7.028645e-02 -6.034826e-14 -7.748197e-04
6.908928e-02 -5.839404e-14 -9.945197e-04
6.814559e-02 -8.372525e-14 -1.212985e-03
6.741968e-02 -1.319652e-13 -1.381663e-03
6.699830e-02 -1.205735e-13 -1.383924e-03
6.654304e-02 -5.691360e-14 -1.160658e-03
6.588972e-02 -7.159811e-14 -5.821672e-04
6.418945e-02 1.308722e-13 4.789943e-04
6.116320e-02 1.015103e-13 1.634048e-03
5.598920e-02 2.274782e-13 3.927773e-03
4.898538e-02 7.218857e-14 4.868516e-03
4.003235e-02 2.105806e-13 9.608485e-03
2.952157e-02 7.495008e-14 1.078905e-02
1.772142e-02 2.473856e-13 2.559890e-02
0.000000e+00 8.983461e-14 4.498031e-02
0.000000e+00 -4.940210e-14 -1.957203e-02
3.660869e-03 -5.244700e-14 -1.570306e-02
9.562517e-03 -1.538328e-14 -1.131798e-02
1.551304e-02 -2.670816e-15 -1.069343e-02
2.248026e-02 -1.300312e-14 -1.115711e-02
3.040139e-02 8.766794e-16 -1.200995e-02
3.903964e-02 -1.379711e-14 -1.244819e-02
4.765068e-02 -1.933091e-14 -1.242758e-02
5.577373e-02 -3.173988e-14 -1.187303e-02
6.272631e-02 -2.512555e-14 -1.088823e-02
6.828156e-02 -4.280955e-14 -9.544496e-03
7.233515e-02 -5.412652e-14 -7.989011e-03
7.500831e-02 -5.401480e-14 -6.450290e-03
7.644493e-02 -8.633348e-14 -5.198763e-03
7.696237e-02 -3.395898e-14 -4.360675e-03
7.688724e-02 -1.083275e-13 -3.860041e-03
7.653940e-02 -1.414585e-13 -3.432663e-03
7.611642e-02 -1.823116e-13 -2.862425e-03
7.578193e-02 -2.944704e-13 -2.207821e-03
7.557613e-02 -2.606890e-13 -1.607614e-03
7.543768e-02 -1.585123e-13 -1.136938e-03
7.522303e-02 -1.777507e-13 -8.042433e-04
7.474574e-02 1.915396e-14 -5.952347e-04
7.393218e-02 -9.802928e-14 -4.970118e-04
7.283430e-02 9.141655e-14 -5.007609e-04
7.156143e-02 1.891761e-14 -6.008413e-04
7.028645e-02 1.947746e-14 -7.748197e-04
6.908928e-02 2.071970e-14 -9.945197e-04
6.814559e-02 -4.076086e-16 -1.212985e-03
6.741968e-02 -4.806540e-14 -1.381663e-03
6.699830e-02 -2.755917e-14 -1.383924e-03
6.654304e-02 1.191938e-15 -1.160658e-03
6.588972e-02 -9.772073e-15 -5.821672e-04
6.418945e-02 1.469545e-13 4.789943e-04
6.116320e-02 1.341467e-13 1.634048e-03
5.598920e-02 1.817085e-13 3.927773e-03
4.898538e-02 7.742617e-14 4.868516e-03
4.003235e-02 1.539080e-13 9.608485e-03
2.952157e-02 8.223845e-14 1.078905e-02
1.772142e-02 1.953001e-13 2.559890e-02
0.000000e+00 9.207456e-14 4.498031e-02
0.000000e+00 -7.982380e-14 -1.957203e-02
3.660869e-03 -5.451192e-14 -1.570306e-02
9.562517e-03 -7.152217e-15 -1.131798e-02
1.551304e-02 2.687100e-16 -1.069343e-02
2.248026e-02 -1.095508e-14 -1.115711e-02
3.040139e-02 -3.233746e-15 -1.200995e-02
3.903964e-02 -1.670952e-14 -1.244819e-02
4.765068e-02 -1.034317e-14 -1.242758e-02