# vtk DataFile Version 3.0
vtk output
ASCII
DATASET UNSTRUCTURED_GRID
POINTS 11767 float
0.000000e+00 0.000000e+00 0.000000e+00
1.460000e-02 0.000000e+00 0.000000e+00
2.920000e-02 0.000000e+00 0.000000e+00
4.380000e-02 0.000000e+00 0.000000e+00
5.840000e-02 0.000000e+00 0.000000e+00
7.300000e-02 0.000000e+00 0.000000e+00
8.760000e-02 0.000000e+00 0.000000e+00
1.022000e-01 0.000000e+00 0.000000e+00
1.168000e-01 0.000000e+00 0.000000e+00
1.314000e-01 0.000000e+00 0.000000e+00
1.460000e-01 0.000000e+00 0.000000e+00
1.606000e-01 0.000000e+00 0.000000e+00
1.752000e-01 0.000000e+00 0.000000e+00
1.898000e-01 0.000000e+00 0.000000e+00
2.044000e-01 0.000000e+00 0.000000e+00
2.190000e-01 0.000000e+00 0.000000e+00
2.336000e-01 0.000000e+00 0.000000e+00
2.482000e-01 0.000000e+00 0.000000e+00
2.628000e-01 0.000000e+00 0.000000e+00
2.774000e-01 0.000000e+00 0.000000e+00
2.920000e-01 0.000000e+00 0.000000e+00
3.066000e-01 0.000000e+00 0.000000e+00
3.212000e-01 0.000000e+00 0.000000e+00
3.358000e-01 0.000000e+00 0.000000e+00
3.504000e-01 0.000000e+00 0.000000e+00
3.650000e-01 0.000000e+00 0.000000e+00
3.796000e-01 0.000000e+00 0.000000e+00
3.942000e-01 0.000000e+00 0.000000e+00
4.088000e-01 0.000000e+00 0.000000e+00
4.234000e-01 0.000000e+00 0.000000e+00
4.380000e-01 0.000000e+00 0.000000e+00
4.526000e-01 0.000000e+00 0.000000e+00
4.672000e-01 0.000000e+00 0.000000e+00
4.818000e-01 0.000000e+00 0.000000e+00
4.964000e-01 0.000000e+00 0.000000e+00
5.110000e-01 0.000000e+00 0.000000e+00
5.256000e-01 0.000000e+00 0.000000e+00
5.402000e-01 0.000000e+00 0.000000e+00
5.548000e-01 0.000000e+00 0.000000e+00
5.694000e-01 0.000000e+00 0.000000e+00
5.840000e-01 0.000000e+00 0.000000e+00
0.000000e+00 1.460000e-02 0.000000e+00
1.460000e-02 1.460000e-02 0.000000e+00
2.920000e-02 1.460000e-02 0.000000e+00
4.380000e-02 1.460000e-02 0.000000e+00
5.840000e-02 1.460000e-02 0.000000e+00
7.300000e-02 1.460000e-02 0.000000e+00
8.760000e-02 1.460000e-02 0.000000e+00
1.022000e-01 1.460000e-02 0.000000e+00
1.168000e-01 1.460000e-02 0.000000e+00
1.314000e-01 1.460000e-02 0.000000e+00
1.460000e-01 1.460000e-02 0.000000e+00
1.606000e-01 1.460000e-02 0.000000e+00
1.752000e-01 1.460000e-02 0.000000e+00
1.898000e-01 1.460000e-02 0.000000e+00
2.044000e-01 1.460000e-02 0.000000e+00
2.190000e-01 1.460000e-02 0.000000e+00
2.336000e-01 1.460000e-02 0.000000e+00
2.482000e-01 1.460000e-02 0.000000e+00
2.628000e-01 1.460000e-02 0.000000e+00
2.774000e-01 1.460000e-02 0.000000e+00
2.920000e-01 1.460000e-02 0.000000e+00
3.066000e-01 1.460000e-02 0.000000e+00
3.212000e-01 1.460000e-02 0.000000e+00
3.358000e-01 1.460000e-02 0.000000e+00
3.504000e-01 1.460000e-02 0.000000e+00
3.650000e-01 1.460000e-02 0.000000e+00
3.796000e-01 1.460000e-02 0.000000e+00
3.942000e-01 1.460000e-02 0.000000e+00
4.088000e-01 1.460000e-02 0.000000e+00
4.234000e-01 1.460000e-02 0.000000e+00
4.380000e-01 1.460000e-02 0.000000e+00
4.526000e-01 1.460000e-02 0.000000e+00
4.672000e-01 1.460000e-02 0.000000e+00
4.818000e-01 1.460000e-02 0.000000e+00
4.964000e-01 1.460000e-02 0.000000e+00
5.110000e-01 1.460000e-02 0.000000e+00
5.256000e-01 1.460000e-02 0.000000e+00
5.402000e-01 1.460000e-02 0.000000e+00
5.548000e-01 1.460000e-02 0.000000e+00
5.694000e-01 1.460000e-02 0.000000e+00
5.840000e-01 1.460000e-02 0.000000e+00
0.000000e+00 2.920000e-02 0.000000e+00
1.460000e-02 2.920000e-02 0.000000e+00
2.920000e-02 2.920000e-02 0.000000e+00
4.380000e-02 2.920000e-02 0.000000e+00
5.840000e-02 2.920000e-02 0.000000e+00
7.300000e-02 2.920000e-02 0.000000e+00
8.760000e-02 2.920000e-02 0.000000e+00
1.022000e-01 2.920000e-02 0.000000e+00
1.168000e-01 2.920000e-02 0.000000e+00
1.314000e-01 2.920000e-02 0.000000e+00
1.460000e-01 2.920000e-02 0.000000e+00
1.606000e-01 2.920000e-02 0.000000e+00
1.752000e-01 2.920000e-02 0.000000e+00
1.898000e-01 2.920000e-02 0.000000e+00
2.044000e-01 2.920000e-02 0.000000e+00
2.190000e-01 2.920000e-02 0.000000e+00
2.336000e-01 2.920000e-02 0.000000e+00
2.482000e-01 2.920000e-02 0.000000e+00
2.628000e-01 2.920000e-02 0.000000e+00
2.774000e-01 2.920000e-02 0.000000e+00
2.920000e-01 2.920000e-02 0.000000e+00
3.066000e-01 2.920000e-02 0.000000e+00
3.212000e-01 2.920000e-02 0.000000e+00
3.358000e-01 2.920000e-02 0.000000e+00
3.504000e-01 2.920000e-02 0.000000e+00
3.650000e-01 2.920000e-02 0.000000e+00
3.796000e-01 2.920000e-02 0.000000e+00
3.942000e-01 2.920000e-02 0.000000e+00
4.088000e-01 2.920000e-02 0.000000e+00
4.234000e-01 2.920000e-02 0.000000e+00
4.380000e-01 2.920000e-02 0.000000e+00
4.526000e-01 2.920000e-02 0.000000e+00
4.672000e-01 2.920000e-02 0.000000e+00
4.818000e-01 2.920000e-02 0.000000e+00
4.964000e-01 2.920000e-02 0.000000e+00
5.110000e-01 2.920000e-02 0.000000e+00
5.256000e-01 2.920000e-02 0.000000e+00
5.402000e-01 2.920000e-02 0.000000e+00
5.548000e-01 2.920000e-02 0.000000e+00
5.694000e-01 2.920000e-02 0.000000e+00
5.840000e-01 2.920000e-02 0.000000e+00
0.000000e+00 4.380000e-02 0.000000e+00
1.460000e-02 4.380000e-02 0.000000e+00
2.920000e-02 4.380000e-02 0.000000e+00
4.380000e-02 4.380000e-02 0.000000e+00
5.840000e-02 4.380000e-02 0.000000e+00
7.300000e-02 4.380000e-02 0.000000e+00
8.760000e-02 4.380000e-02 0.000000e+00
1.022000e-01 4.380000e-02 0.000000e+00
1.168000e-01 4.380000e-02 0.000000e+00
1.314000e-01 4.380000e-02 0.000000e+00
1.460000e-01 4.380000e-02 0.000000e+00
1.606000e-01 4.380000e-02 0.000000e+00
1.752000e-01 4.380000e-02 0.000000e+00
1.898000e-01 4.380000e-02 0.000000e+00
2.044000e-01 4.380000e-02 0.000000e+00
2.190000e-01 4.380000e-02 0.000000e+00
2.336000e-01 4.380000e-02 0.000000e+00
2.482000e-01 4.380000e-02 0.000000e+00
2.628000e-01 4.380000e-02 0.000000e+00
2.774000e-01 4.380000e-02 0.000000e+00
2.920000e-01 4.380000e-02 0.000000e+00
3.066000e-01 4.380000e-02 0.000000e+00
3.212000e-01 4.380000e-02 0.000000e+00
3.358000e-01 4.380000e-02 0.000000e+00
3.504000e-01 4.380000e-02 0.000000e+00
3.650000e-01 4.380000e-02 0.000000e+00
3.796000e-01 4.380000e-02 0.000000e+00
3.942000e-01 4.380000e-02 0.000000e+00
4.088000e-01 4.380000e-02 0.000000e+00
4.234000e-01 4.380000e-02 0.000000e+00
4.380000e-01 4.380000e-02 0.000000e+00
4.526000e-01 4.380000e-02 0.000000e+00
4.672000e-01 4.380000e-02 0.000000e+00
4.818000e-01 4.380000e-02 0.000000e+00
4.964000e-01 4.380000e-02 0.000000e+00
5.110000e-01 4.380000e-02 0.000000e+00
5.256000e-01 4.380000e-02 0.000000e+00
5.402000e-01 4.380000e-02 0.000000e+00
5.548000e-01 4.380000e-02 0.000000e+00
5.694000e-01 4.380000e-02 0.000000e+00
5.840000e-01 4.380000e-02 0.000000e+00
0.000000e+00 5.840000e-02 0.000000e+00
1.460000e-02 5.840000e-02 0.000000e+00
2.920000e-02 5.840000e-02 0.000000e+00
4.380000e-02 5.840000e-02 0.000000e+00
5.840000e-02 5.840000e-02 0.000000e+00
7.300000e-02 5.840000e-02 0.000000e+00
8.760000e-02 5.840000e-02 0.000000e+00
1.022000e-01 5.840000e-02 0.000000e+00
1.168000e-01 5.840000e-02 0.000000e+00
1.314000e-01 5.840000e-02 0.000000e+00
1.460000e-01 5.840000e-02 0.000000e+00
1.606000e-01 5.840000e-02 0.000000e+00
1.752000e-01 5.840000e-02 0.000000e+00
1.898000e-01 5.840000e-02 0.000000e+00
2.044000e-01 5.840000e-02 0.000000e+00
2.190000e-01 5.840000e-02 0.000000e+00
2.336000e-01 5.840000e-02 0.000000e+00
2.482000e-01 5.840000e-02 0.000000e+00
2.628000e-01 5.840000e-02 0.000000e+00
2.774000e-01 5.840000e-02 0.000000e+00
2.920000e-01 5.840000e-02 0.000000e+00
3.066000e-01 5.840000e-02 0.000000e+00
3.212000e-01 5.840000e-02 0.000000e+00
3.358000e-01 5.840000e-02 0.000000e+00
3.504000e-01 5.840000e-02 0.000000e+00
3.650000e-01 5.840000e-02 0.000000e+00
3.796000e-01 5.840000e-02 0.000000e+00
3.942000e-01 5.840000e-02 0.000000e+00
4.088000e-01 5.840000e-02 0.000000e+00
4.234000e-01 5.840000e-02 0.000000e+00
4.380000e-01 5.840000e-02 0.000000e+00
4.526000e-01 5.840000e-02 0.000000e+00
4.672000e-01 5.840000e-02 0.000000e+00
4.818000e-01 5.840000e-02 0.000000e+00
4.964000e-01 5.840000e-02 0.000000e+00
5.110000e-01 5.840000e-02 0.000000e+00
5.256000e-01 5.840000e-02 0.000000e+00
5.402000e-01 5.840000e-02 0.000000e+00
5.548000e-01 5.840000e-02 0.000000e+00
5.694000e-01 5.840000e-02 0.000000e+00
5.840000e-01 5.840000e-02 0.000000e+00
0.000000e+00 7.300000e-02 0.000000e+00
1.460000e-02 7.300000e-02 0.000000e+00
2.920000e-02 7.300000e-02 0.000000e+00
4.380000e-02 7.300000e-02 0.000000e+00
5.840000e-02 7.300000e-02 0.000000e+00
7.300000e-02 7.300000e-02 0.000000e+00
8.760000e-02 7.300000e-02 0.000000e+00
1.022000e-01 7.300000e-02 0.000000e+00
1.168000e-01 7.300000e-02 0.000000e+00
1.314000e-01 7.300000e-02 0.000000e+00
1.460000e-01 7.300000e-02 0.000000e+00
1.606000e-01 7.300000e-02 0.000000e+00
1.752000e-01 7.300000e-02 0.000000e+00
1.898000e-01 7.300000e-02 0.000000e+00
2.044000e-01 7.300000e-02 0.000000e+00
2.190000e-01 7.300000e-02 0.000000e+00
2.336000e-01 7.300000e-02 0.000000e+00
2.482000e-01 7.300000e-02 0.000000e+00
2.628000e-01 7.300000e-02 0.000000e+00
2.774000e-01 7.300000e-02 0.000000e+00
2.920000e-01 7.300000e-02 0.000000e+00
3.066000e-01 7.300000e-02 0.000000e+00
3.212000e-01 7.300000e-02 0.000000e+00
3.358000e-01 7.300000e-02 0.000000e+00
3.504000e-01 7.300000e-02 0.000000e+00
3.650000e-01 7.300000e-02 0.000000e+00
3.796000e-01 7.300000e-02 0.000000e+00
3.942000e-01 7.300000e-02 0.000000e+00
4.088000e-01 7.300000e-02 0.000000e+00
4.234000e-01 7.300000e-02 0.000000e+00
4.380000e-01 7.300000e-02 0.000000e+00
4.526000e-01 7.300000e-02 0.000000e+00
4.672000e-01 7.300000e-02 0.000000e+00
4.818000e-01 7.300000e-02 0.000000e+00
4.964000e-01 7.300000e-02 0.000000e+00
5.110000e-01 7.300000e-02 0.000000e+00
5.256000e-01 7.300000e-02 0.000000e+00
5.402000e-01 7.300000e-02 0.000000e+00
5.548000e-01 7.300000e-02 0.000000e+00
5.694000e-01 7.300000e-02 0.000000e+00
5.840000e-01 7.300000e-02 0.000000e+00
0.000000e+00 8.760000e-02 0.000000e+00
1.460000e-02 8.760000e-02 0.000000e+00
2.920000e-02 8.760000e-02 0.000000e+00
4.380000e-02 8.760000e-02 0.000000e+00
5.840000e-02 8.760000e-02 0.000000e+00
7.300000e-02 8.760000e-02 0.000000e+00
8.760000e-02 8.760000e-02 0.000000e+00
1.022000e-01 8.760000e-02 0.000000e+00
[...]
POINT_DATA 11767
VECTORS Velocity float
0.000000e+00 0.000000e+00 0.000000e+00
2.818440e-02 0.000000e+00 0.000000e+00
4.637699e-02 0.000000e+00 0.000000e+00
6.034731e-02 0.000000e+00 0.000000e+00
7.128923e-02 0.000000e+00 0.000000e+00
8.024049e-02 0.000000e+00 0.000000e+00
8.690103e-02 0.000000e+00 0.000000e+00
9.130488e-02 0.000000e+00 0.000000e+00
9.387739e-02 0.000000e+00 0.000000e+00
9.518819e-02 0.000000e+00 0.000000e+00
9.564193e-02 0.000000e+00 0.000000e+00
9.552550e-02 0.000000e+00 0.000000e+00
9.507360e-02 0.000000e+00 0.000000e+00
9.450541e-02 0.000000e+00 0.000000e+00
9.396912e-02 0.000000e+00 0.000000e+00
9.346793e-02 0.000000e+00 0.000000e+00
9.268096e-02 0.000000e+00 0.000000e+00
9.146976e-02 0.000000e+00 0.000000e+00
8.990101e-02 0.000000e+00 0.000000e+00
8.811252e-02 0.000000e+00 0.000000e+00
8.627500e-02 0.000000e+00 0.000000e+00
8.460271e-02 0.000000e+00 0.000000e+00
8.322613e-02 0.000000e+00 0.000000e+00
8.229145e-02 0.000000e+00 0.000000e+00
8.179595e-02 0.000000e+00 0.000000e+00
8.176120e-02 0.000000e+00 0.000000e+00
8.210180e-02 0.000000e+00 0.000000e+00
8.287378e-02 0.000000e+00 0.000000e+00
8.393347e-02 0.000000e+00 0.000000e+00
8.528807e-02 0.000000e+00 0.000000e+00
8.662412e-02 0.000000e+00 0.000000e+00
8.776791e-02 0.000000e+00 0.000000e+00
8.832521e-02 0.000000e+00 0.000000e+00
8.800144e-02 0.000000e+00 0.000000e+00
8.664870e-02 0.000000e+00 0.000000e+00
8.423496e-02 0.000000e+00 0.000000e+00
8.001029e-02 0.000000e+00 0.000000e+00
7.493305e-02 0.000000e+00 0.000000e+00
6.270748e-02 0.000000e+00 0.000000e+00
4.793717e-02 0.000000e+00 0.000000e+00
0.000000e+00 0.000000e+00 0.000000e+00
0.000000e+00 -4.006276e-14 0.000000e+00
2.818440e-02 -5.068813e-14 0.000000e+00
4.637699e-02 -2.819310e-14 0.000000e+00
6.034731e-02 3.331863e-14 0.000000e+00
7.128923e-02 2.123969e-14 0.000000e+00
8.024049e-02 2.050847e-14 0.000000e+00
8.690103e-02 4.325114e-14 0.000000e+00
9.130488e-02 4.975802e-14 0.000000e+00
9.387739e-02 1.550537e-14 0.000000e+00
9.518819e-02 3.965734e-14 0.000000e+00
9.564193e-02 8.503675e-15 0.000000e+00
9.552550e-02 -5.889099e-14 0.000000e+00
9.507360e-02 5.936830e-14 0.000000e+00
9.450541e-02 -2.082960e-14 0.000000e+00
9.396912e-02 2.330624e-14 0.000000e+00
9.346793e-02 7.310944e-14 0.000000e+00
9.268096e-02 2.582984e-15 0.000000e+00
9.146976e-02 5.123967e-14 0.000000e+00
8.990101e-02 8.910708e-14 0.000000e+00
8.811252e-02 -5.141419e-14 0.000000e+00
8.627500e-02 6.156083e-16 0.000000e+00
8.460271e-02 -4.569814e-14 0.000000e+00
8.322613e-02 -6.647090e-14 0.000000e+00
8.229145e-02 -8.201916e-14 0.000000e+00
8.179595e-02 -1.597081e-13 0.000000e+00
8.176120e-02 -1.138196e-13 0.000000e+00
8.210180e-02 -2.055282e-13 0.000000e+00
8.287378e-02 -1.604080e-13 0.000000e+00
8.393347e-02 -1.682947e-13 0.000000e+00
8.528807e-02 -1.087343e-13 0.000000e+00
8.662412e-02 -1.172960e-13 0.000000e+00
8.776791e-02 -1.059743e-13 0.000000e+00
8.832521e-02 -1.742441e-13 0.000000e+00
8.800144e-02 -1.340231e-13 0.000000e+00
8.664870e-02 -1.752203e-13 0.000000e+00
8.423496e-02 -1.387324e-13 0.000000e+00
8.001029e-02 -1.978143e-13 0.000000e+00
7.493305e-02 -1.089207e-13 0.000000e+00
6.270748e-02 -1.095847e-13 0.000000e+00
4.793717e-02 -9.428670e-14 0.000000e+00
0.000000e+00 -1.001943e-13 0.000000e+00
0.000000e+00 -1.381017e-13 0.000000e+00
2.818440e-02 2.087948e-14 0.000000e+00
4.637699e-02 -5.251609e-14 0.000000e+00
6.034731e-02 8.618217e-15 0.000000e+00
7.128923e-02 8.374394e-15 0.000000e+00
8.024049e-02 1.387674e-14 0.000000e+00
8.690103e-02 4.427420e-14 0.000000e+00
9.130488e-02 4.373688e-14 0.000000e+00
9.387739e-02 1.722096e-14 0.000000e+00
9.518819e-02 1.041220e-14 0.000000e+00
9.564193e-02 2.905379e-14 0.000000e+00
9.552550e-02 -1.367935e-13 0.000000e+00
9.507360e-02 1.013814e-13 0.000000e+00
9.450541e-02 -7.950625e-14 0.000000e+00
9.396912e-02 2.111137e-14 0.000000e+00
9.346793e-02 6.206287e-14 0.000000e+00
9.268096e-02 -1.510158e-14 0.000000e+00
9.146976e-02 1.867464e-14 0.000000e+00
8.990101e-02 1.156640e-13 0.000000e+00
8.811252e-02 -1.013289e-13 0.000000e+00
8.627500e-02 1.884326e-14 0.000000e+00
8.460271e-02 -6.542647e-14 0.000000e+00
8.322613e-02 -4.307825e-14 0.000000e+00
8.229145e-02 -5.606294e-14 0.000000e+00
8.179595e-02 -1.382791e-13 0.000000e+00
8.176120e-02 -5.891879e-14 0.000000e+00
8.210180e-02 -1.468196e-13 0.000000e+00
8.287378e-02 -9.612492e-14 0.000000e+00
8.393347e-02 -1.220623e-13 0.000000e+00
8.528807e-02 -3.656726e-14 0.000000e+00
8.662412e-02 -6.624125e-14 0.000000e+00
8.776791e-02 -4.437396e-14 0.000000e+00
8.832521e-02 -1.026320e-13 0.000000e+00
8.800144e-02 -1.378106e-13 0.000000e+00
8.664870e-02 -1.971376e-13 0.000000e+00
8.423496e-02 -1.796789e-13 0.000000e+00
8.001029e-02 -1.958868e-13 0.000000e+00
7.493305e-02 -1.575820e-13 0.000000e+00
6.270748e-02 -6.396788e-14 0.000000e+00
4.793717e-02 -1.464524e-13 0.000000e+00
0.000000e+00 -1.698310e-13 0.000000e+00
0.000000e+00 -3.577498e-14 0.000000e+00
2.818440e-02 6.489354e-15 0.000000e+00
4.637699e-02 -3.416747e-14 0.000000e+00
6.034731e-02 -2.621159e-14 0.000000e+00
7.128923e-02 -5.684282e-15 0.000000e+00
8.024049e-02 7.625433e-15 0.000000e+00
8.690103e-02 2.752069e-14 0.000000e+00
9.130488e-02 2.093439e-14 0.000000e+00
9.387739e-02 -2.022519e-14 0.000000e+00
9.518819e-02 -2.867524e-14 0.000000e+00
9.564193e-02 4.247631e-15 0.000000e+00
9.552550e-02 -1.480818e-13 0.000000e+00
9.507360e-02 1.033015e-13 0.000000e+00
9.450541e-02 -1.214530e-13 0.000000e+00
9.396912e-02 8.517646e-15 0.000000e+00
9.346793e-02 4.169929e-14 0.000000e+00
9.268096e-02 -3.172285e-14 0.000000e+00
9.146976e-02 -2.507137e-14 0.000000e+00
8.990101e-02 9.940533e-14 0.000000e+00
8.811252e-02 -1.377539e-13 0.000000e+00
8.627500e-02 2.239625e-14 0.000000e+00
8.460271e-02 -3.529854e-14 0.000000e+00
8.322613e-02 -5.959069e-15 0.000000e+00
8.229145e-02 4.715380e-14 0.000000e+00
8.179595e-02 -7.607255e-14 0.000000e+00
8.176120e-02 7.096626e-14 0.000000e+00
8.210180e-02 -4.194386e-14 0.000000e+00
8.287378e-02 5.012750e-14 0.000000e+00
8.393347e-02 1.668514e-14 0.000000e+00
8.528807e-02 7.046918e-14 0.000000e+00
8.662412e-02 2.467284e-14 0.000000e+00
8.776791e-02 6.577841e-14 0.000000e+00
8.832521e-02 7.000464e-15 0.000000e+00
8.800144e-02 -4.158845e-14 0.000000e+00
8.664870e-02 -1.373466e-13 0.000000e+00
8.423496e-02 -1.131820e-13 0.000000e+00
8.001029e-02 -1.520582e-13 0.000000e+00
7.493305e-02 -7.542262e-14 0.000000e+00
6.270748e-02 -4.982988e-14 0.000000e+00
4.793717e-02 -5.548474e-14 0.000000e+00
0.000000e+00 -1.547572e-13 0.000000e+00
0.000000e+00 2.216023e-14 0.000000e+00
2.818440e-02 -5.406669e-14 0.000000e+00
4.637699e-02 -4.249817e-15 0.000000e+00
6.034731e-02 -3.317185e-14 0.000000e+00
7.128923e-02 -2.248356e-16 0.000000e+00
8.024049e-02 -1.352155e-14 0.000000e+00
8.690103e-02 4.685997e-15 0.000000e+00
9.130488e-02 -8.718832e-15 0.000000e+00
9.387739e-02 -5.336327e-14 0.000000e+00
9.518819e-02 -4.795288e-14 0.000000e+00
9.564193e-02 -6.852651e-15 0.000000e+00
9.552550e-02 -1.369656e-13 0.000000e+00
9.507360e-02 8.589239e-14 0.000000e+00
9.450541e-02 -1.220737e-13 0.000000e+00
9.396912e-02 -3.680965e-14 0.000000e+00
9.346793e-02 2.756437e-14 0.000000e+00
9.268096e-02 -4.963662e-14 0.000000e+00
9.146976e-02 -6.116400e-15 0.000000e+00
8.990101e-02 1.122066e-13 0.000000e+00
8.811252e-02 -1.119213e-13 0.000000e+00
8.627500e-02 3.882100e-14 0.000000e+00
8.460271e-02 -6.201371e-14 0.000000e+00
8.322613e-02 -9.463274e-15 0.000000e+00
8.229145e-02 2.689809e-15 0.000000e+00
8.179595e-02 -7.889396e-14 0.000000e+00
8.176120e-02 2.856865e-14 0.000000e+00
8.210180e-02 -7.606758e-14 0.000000e+00
8.287378e-02 -1.479114e-14 0.000000e+00
8.393347e-02 -3.786202e-14 0.000000e+00
8.528807e-02 2.240895e-14 0.000000e+00
8.662412e-02 -3.690329e-14 0.000000e+00
8.776791e-02 1.740394e-14 0.000000e+00
8.832521e-02 -3.504754e-14 0.000000e+00
8.800144e-02 -4.636493e-14 0.000000e+00
8.664870e-02 -1.006693e-13 0.000000e+00
8.423496e-02 -1.011813e-13 0.000000e+00
8.001029e-02 -1.072388e-13 0.000000e+00
7.493305e-02 -7.584300e-14 0.000000e+00
6.270748e-02 -1.438892e-14 0.000000e+00
4.793717e-02 -6.322571e-14 0.000000e+00
0.000000e+00 -1.351350e-13 0.000000e+00
0.000000e+00 -1.041018e-13 0.000000e+00
2.818440e-02 -1.075694e-14 0.000000e+00
4.637699e-02 -3.216304e-14 0.000000e+00
6.034731e-02 -2.047933e-14 0.000000e+00
7.128923e-02 -1.236143e-14 0.000000e+00
8.024049e-02 -4.678129e-15 0.000000e+00
8.690103e-02 -5.829202e-15 0.000000e+00
9.130488e-02 -1.866874e-14 0.000000e+00
9.387739e-02 -3.386501e-14 0.000000e+00
9.518819e-02 -4.904326e-14 0.000000e+00
9.564193e-02 -1.265393e-14 0.000000e+00
9.552550e-02 -9.576529e-14 0.000000e+00
9.507360e-02 4.105197e-14 0.000000e+00
9.450541e-02 -1.038772e-13 0.000000e+00
9.396912e-02 -2.185197e-14 0.000000e+00
9.346793e-02 3.460738e-15 0.000000e+00
9.268096e-02 -4.300783e-14 0.000000e+00
9.146976e-02 -3.430607e-15 0.000000e+00
8.990101e-02 7.091704e-14 0.000000e+00
8.811252e-02 -7.754856e-14 0.000000e+00
8.627500e-02 1.198727e-14 0.000000e+00
8.460271e-02 -6.294771e-14 0.000000e+00
8.322613e-02 -5.182585e-14 0.000000e+00
8.229145e-02 -4.225864e-14 0.000000e+00
8.179595e-02 -1.253555e-13 0.000000e+00
8.176120e-02 -5.465910e-14 0.000000e+00
8.210180e-02 -1.474836e-13 0.000000e+00
8.287378e-02 -9.022408e-14 0.000000e+00
8.393347e-02 -1.236692e-13 0.000000e+00
8.528807e-02 -7.388664e-14 0.000000e+00
8.662412e-02 -9.343032e-14 0.000000e+00
8.776791e-02 -6.945206e-14 0.000000e+00
8.832521e-02 -1.139133e-13 0.000000e+00
8.800144e-02 -5.237021e-14 0.000000e+00
8.664870e-02 -1.043849e-13 0.000000e+00
8.423496e-02 -6.851938e-14 0.000000e+00
8.001029e-02 -1.161130e-13 0.000000e+00
7.493305e-02 -3.440262e-14 0.000000e+00
6.270748e-02 -8.156196e-14 0.000000e+00
4.793717e-02 -6.970236e-15 0.000000e+00
0.000000e+00 -7.516884e-14 0.000000e+00
0.000000e+00 0.000000e+00 0.000000e+00
2.818440e-02 0.000000e+00 0.000000e+00
4.637699e-02 0.000000e+00 0.000000e+00
6.034731e-02 0.000000e+00 0.000000e+00
7.128923e-02 0.000000e+00 0.000000e+00
8.024049e-02 0.000000e+00 0.000000e+00
8.690103e-02 0.000000e+00 0.000000e+00
9.130488e-02 0.000000e+00 0.000000e+00
9.387739e-02 0.000000e+00 0.000000e+00
9.518819e-02 0.000000e+00 0.000000e+00
9.564193e-02 0.000000e+00 0.000000e+00
9.552550e-02 0.000000e+00 0.000000e+00
9.507360e-02 0.000000e+00 0.000000e+00
9.450541e-02 0.000000e+00 0.000000e+00
9.396912e-02 0.000000e+00 0.000000e+00
9.346793e-02 0.000000e+00 0.000000e+00
9.268096e-02 0.000000e+00 0.000000e+00
9.146976e-02 0.000000e+00 0.000000e+00
8.990101e-02 0.000000e+00 0.000000e+00
8.811252e-02 0.000000e+00 0.000000e+00
8.627500e-02 0.000000e+00 0.000000e+00
8.460271e-02 0.000000e+00 0.000000e+00
8.322613e-02 0.000000e+00 0.000000e+00
8.229145e-02 0.000000e+00 0.000000e+00
8.179595e-02 0.000000e+00 0.000000e+00
8.176120e-02 0.000000e+00 0.000000e+00
8.210180e-02 0.000000e+00 0.000000e+00
8.287378e-02 0.000000e+00 0.000000e+00
8.393347e-02 0.000000e+00 0.000000e+00
8.528807e-02 0.000000e+00 0.000000e+00
8.662412e-02 0.000000e+00 0.000000e+00
8.776791e-02 0.000000e+00 0.000000e+00
8.832521e-02 0.000000e+00 0.000000e+00
8.800144e-02 0.000000e+00 0.000000e+00
8.664870e-02 0.000000e+00 0.000000e+00
8.423496e-02 0.000000e+00 0.000000e+00
8.001029e-02 0.000000e+00 0.000000e+00
7.493305e-02 0.000000e+00 0.000000e+00
6.270748e-02 0.000000e+00 0.000000e+00
4.793717e-02 0.000000e+00 0.000000e+00
0.000000e+00 0.000000e+00 0.000000e+00
0.000000e+00 0.000000e+00 -2.674578e-02
1.203116e-02 0.000000e+00 -2.220185e-02
2.465884e-02 0.000000e+00 -1.646371e-02
3.490114e-02 0.000000e+00 -1.375324e-02
4.298246e-02 0.000000e+00 -1.127509e-02
4.858765e-02 0.000000e+00 -9.217745e-03
5.243137e-02 0.000000e+00 -7.110025e-03
5.476222e-02 0.000000e+00 -5.211575e-03
5.558286e-02 0.000000e+00 -3.698129e-03
5.509243e-02 0.000000e+00 -2.639215e-03
5.372131e-02 0.000000e+00 -1.963471e-03
5.191365e-02 0.000000e+00 -1.566156e-03
4.986899e-02 0.000000e+00 -1.359155e-03
4.764349e-02 0.000000e+00 -1.274841e-03
4.517505e-02 0.000000e+00 -1.232362e-03
4.232788e-02 0.000000e+00 -1.000805e-03
3.895536e-02 0.000000e+00 -5.603465e-04
3.516201e-02 0.000000e+00 -1.793974e-04
3.118407e-02 0.000000e+00 3.257080e-05
2.733296e-02 0.000000e+00 2.166688e-05
2.398486e-02 0.000000e+00 -2.380231e-04
2.138038e-02 0.000000e+00 -6.698533e-04
1.962142e-02 0.000000e+00 -1.201630e-03
1.863552e-02 0.000000e+00 -1.747597e-03
1.834105e-02 0.000000e+00 -2.278522e-03
1.867584e-02 0.000000e+00 -2.753513e-03
1.955032e-02 0.000000e+00 -3.193852e-03
2.086316e-02 0.000000e+00 -3.577454e-03
2.256473e-02 0.000000e+00 -3.899746e-03
2.459237e-02 0.000000e+00 -4.131803e-03
2.699737e-02 0.000000e+00 -4.165275e-03
2.960305e-02 0.000000e+00 -3.973581e-03
3.216978e-02 0.000000e+00 -3.335724e-03
3.395971e-02 0.000000e+00 -2.342169e-03
3.472317e-02 0.000000e+00 -1.353312e-03
3.395410e-02 0.000000e+00 4.230529e-04
3.188157e-02 0.000000e+00 8.850687e-04
2.830096e-02 0.000000e+00 5.389819e-03
2.274004e-02 0.000000e+00 6.356891e-03
1.512241e-02 0.000000e+00 2.143766e-02
0.000000e+00 0.000000e+00 4.103916e-02
0.000000e+00 -6.358350e-14 -2.674578e-02
1.203116e-02 -2.924032e-14 -2.220185e-02
2.465884e-02 2.801106e-15 -1.646371e-02
3.490114e-02 1.494541e-14 -1.375324e-02
4.298246e-02 -1.227755e-14 -1.127509e-02
4.858765e-02 6.583095e-15 -9.217745e-03
5.243137e-02 -4.380558e-14 -7.110025e-03
5.476222e-02 -2.501074e-14 -5.211575e-03
5.558286e-02 -2.379223e-14 -3.698129e-03
5.509243e-02 -1.692531e-14 -2.639215e-03
5.372131e-02 4.429090e-14 -1.963471e-03
5.191365e-02 9.251912e-14 -1.566156e-03
4.986899e-02 9.616595e-14 -1.359155e-03
4.764349e-02 6.097441e-14 -1.274841e-03
4.517505e-02 7.037215e-14 -1.232362e-03
4.232788e-02 -1.861733e-14 -1.000805e-03
3.895536e-02 -2.754729e-14 -5.603465e-04
3.516201e-02 -5.091663e-14 -1.793974e-04
3.118407e-02 -1.125431e-13 3.257080e-05
2.733296e-02 2.754953e-14 2.166688e-05
2.398486e-02 2.702861e-14 -2.380231e-04
2.138038e-02 -4.112757e-14 -6.698533e-04
1.962142e-02 -9.301149e-14 -1.201630e-03
1.863552e-02 -2.917711e-13 -1.747597e-03
1.834105e-02 -2.941089e-13 -2.278522e-03
1.867584e-02 -5.290321e-13 -2.753513e-03
1.955032e-02 -6.826589e-13 -3.193852e-03
2.086316e-02 -7.623458e-13 -3.577454e-03
2.256473e-02 -8.739054e-13 -3.899746e-03
2.459237e-02 -7.808595e-13 -4.131803e-03
2.699737e-02 -5.284586e-13 -4.165275e-03
2.960305e-02 -6.123377e-15 -3.973581e-03
3.216978e-02 4.475371e-13 -3.335724e-03
3.395971e-02 6.194054e-13 -2.342169e-03
3.472317e-02 2.565431e-13 -1.353312e-03
3.395410e-02 1.383446e-13 4.230529e-04
3.188157e-02 -6.414191e-14 8.850687e-04
2.830096e-02 2.548619e-14 5.389819e-03
2.274004e-02 -1.789537e-13 6.356891e-03
1.512241e-02 1.653558e-13 2.143766e-02
0.000000e+00 -1.831651e-13 4.103916e-02
0.000000e+00 -9.070251e-14 -2.674578e-02
1.203116e-02 -7.448579e-14 -2.220185e-02
2.465884e-02 -5.839545e-14 -1.646371e-02
3.490114e-02 -9.155730e-15 -1.375324e-02
4.298246e-02 -2.714733e-14 -1.127509e-02
4.858765e-02 3.865569e-14 -9.217745e-03
5.243137e-02 -6.074917e-14 -7.110025e-03
5.476222e-02 1.250004e-14 -5.211575e-03
5.558286e-02 -1.410202e-14 -3.698129e-03
5.509243e-02 -1.762685e-14 -2.639215e-03
5.372131e-02 5.849967e-14 -1.963471e-03
5.191365e-02 7.266473e-14 -1.566156e-03
4.986899e-02 8.200636e-14 -1.359155e-03
4.764349e-02 5.382826e-14 -1.274841e-03
4.517505e-02 1.171883e-13 -1.232362e-03
4.232788e-02 -2.899285e-14 -1.000805e-03
3.895536e-02 3.773700e-14 -5.603465e-04
3.516201e-02 -5.869012e-15 -1.793974e-04
3.118407e-02 -5.174170e-14 3.257080e-05
2.733296e-02 9.157378e-14 2.166688e-05
2.398486e-02 8.614538e-14 -2.380231e-04
2.138038e-02 2.197510e-15 -6.698533e-04
1.962142e-02 3.111065e-14 -1.201630e-03
1.863552e-02 -2.184433e-13 -1.747597e-03
1.834105e-02 -7.481923e-14 -2.278522e-03
1.867584e-02 -3.741248e-13 -2.753513e-03
1.955032e-02 -4.753355e-13 -3.193852e-03
2.086316e-02 -5.514405e-13 -3.577454e-03
2.256473e-02 -6.933417e-13 -3.899746e-03
2.459237e-02 -7.255117e-13 -4.131803e-03
2.699737e-02 -6.577822e-13 -4.165275e-03
2.960305e-02 -2.657539e-13 -3.973581e-03
3.216978e-02 -1.239492e-14 -3.335724e-03
3.395971e-02 3.113862e-13 -2.342169e-03
3.472317e-02 1.804255e-13 -1.353312e-03
3.395410e-02 7.818909e-14 4.230529e-04
3.188157e-02 -1.221621e-13 8.850687e-04
2.830096e-02 -6.614104e-14 5.389819e-03
2.274004e-02 -2.034487e-13 6.356891e-03
1.512241e-02 1.289575e-13 2.143766e-02
0.000000e+00 -2.721944e-13 4.103916e-02
0.000000e+00 -3.929245e-14 -2.674578e-02
1.203116e-02 -5.272801e-14 -2.220185e-02
2.465884e-02 -4.916086e-14 -1.646371e-02
3.490114e-02 -2.763563e-14 -1.375324e-02
4.298246e-02 -8.615818e-15 -1.127509e-02
4.858765e-02 4.700849e-14 -9.217745e-03
5.243137e-02 -5.193411e-14 -7.110025e-03
5.476222e-02 3.146059e-14 -5.211575e-03
5.558286e-02 -1.006921e-14 -3.698129e-03
5.509243e-02 -1.228268e-14 -2.639215e-03
5.372131e-02 4.501925e-14 -1.963471e-03
5.191365e-02 2.949163e-14 -1.566156e-03
4.986899e-02 4.938966e-14 -1.359155e-03
4.764349e-02 9.810126e-14 -1.274841e-03
4.517505e-02 1.779295e-13 -1.232362e-03
4.232788e-02 3.261251e-14 -1.000805e-03
3.895536e-02 8.104689e-14 -5.603465e-04
3.516201e-02 1.590662e-14 -1.793974e-04
3.118407e-02 -2.831464e-14 3.257080e-05
2.733296e-02 1.406281e-13 2.166688e-05
2.398486e-02 1.544395e-13 -2.380231e-04
2.138038e-02 1.132505e-13 -6.698533e-04
1.962142e-02 1.866218e-13 -1.201630e-03
1.863552e-02 -6.291321e-14 -1.747597e-03
1.834105e-02 2.083369e-13 -2.278522e-03
1.867584e-02 5.631997e-14 -2.753513e-03
1.955032e-02 -6.595560e-15 -3.193852e-03
2.086316e-02 3.611370e-14 -3.577454e-03
2.256473e-02 -2.292997e-13 -3.899746e-03
2.459237e-02 -2.444829e-13 -4.131803e-03
2.699737e-02 -4.609575e-13 -4.165275e-03
2.960305e-02 -4.901648e-13 -3.973581e-03
3.216978e-02 -5.714232e-13 -3.335724e-03
3.395971e-02 -2.452949e-13 -2.342169e-03
3.472317e-02 -1.251978e-13 -1.353312e-03
3.395410e-02 -2.125191e-14 4.230529e-04
3.188157e-02 -2.180001e-13 8.850687e-04
2.830096e-02 -7.263434e-14 5.389819e-03
2.274004e-02 -3.002724e-13 6.356891e-03
1.512241e-02 1.198706e-13 2.143766e-02
0.000000e+00 -3.635834e-13 4.103916e-02
0.000000e+00 -5.383601e-14 -2.674578e-02
1.203116e-02 -3.556973e-14 -2.220185e-02
2.465884e-02 -1.777396e-14 -1.646371e-02
3.490114e-02 -1.683021e-14 -1.375324e-02
4.298246e-02 4.051756e-16 -1.127509e-02
4.858765e-02 2.483376e-14 -9.217745e-03
5.243137e-02 -4.973781e-14 -7.110025e-03
5.476222e-02 3.775987e-14 -5.211575e-03
5.558286e-02 3.107617e-14 -3.698129e-03
5.509243e-02 1.781746e-14 -2.639215e-03
5.372131e-02 5.004549e-14 -1.963471e-03
5.191365e-02 6.420763e-14 -1.566156e-03
4.986899e-02 6.639268e-14 -1.359155e-03
4.764349e-02 7.778436e-14 -1.274841e-03
4.517505e-02 1.538052e-13 -1.232362e-03
4.232788e-02 2.411359e-14 -1.000805e-03
3.895536e-02 7.963981e-14 -5.603465e-04
3.516201e-02 3.932042e-14 -1.793974e-04
3.118407e-02 -7.278427e-14 3.257080e-05
2.733296e-02 3.761820e-14 2.166688e-05
2.398486e-02 2.738286e-14 -2.380231e-04
2.138038e-02 4.183401e-14 -6.698533e-04
1.962142e-02 1.236458e-13 -1.201630e-03
1.863552e-02 -8.063606e-14 -1.747597e-03
1.834105e-02 1.529736e-13 -2.278522e-03
1.867584e-02 -8.593552e-14 -2.753513e-03
1.955032e-02 -9.480942e-14 -3.193852e-03
2.086316e-02 -1.312238e-13 -3.577454e-03
2.256473e-02 -2.620305e-13 -3.899746e-03
2.459237e-02 -3.468805e-13 -4.131803e-03
2.699737e-02 -4.268997e-13 -4.165275e-03
2.960305e-02 -3.763443e-13 -3.973581e-03
3.216978e-02 -3.668213e-13 -3.335724e-03
3.395971e-02 -1.285886e-13 -2.342169e-03
3.472317e-02 -1.000041e-13 -1.353312e-03
3.395410e-02 -9.849954e-16 4.230529e-04
3.188157e-02 -1.572216e-13 8.850687e-04
2.830096e-02 -3.271597e-14 5.389819e-03
2.274004e-02 -1.980486e-13 6.356891e-03
1.512241e-02 8.931793e-14 2.143766e-02
0.000000e+00 -2.381948e-13 4.103916e-02
0.000000e+00 -2.744122e-14 -2.674578e-02
1.203116e-02 -5.003153e-14 -2.220185e-02
2.465884e-02 -3.423755e-14 -1.646371e-02
3.490114e-02 -1.276504e-14 -1.375324e-02
4.298246e-02 -1.954734e-14 -1.127509e-02
4.858765e-02 1.450067e-14 -9.217745e-03
5.243137e-02 -4.229680e-14 -7.110025e-03
5.476222e-02 3.157720e-14 -5.211575e-03
5.558286e-02 2.831216e-14 -3.698129e-03