# vtk DataFile Version 3.0
vtk output
ASCII
DATASET UNSTRUCTURED_GRID
POINTS 11767 float
0.000000e+00 0.000000e+00 0.000000e+00
1.460000e-02 0.000000e+00 0.000000e+00
2.920000e-02 0.000000e+00 0.000000e+00
4.380000e-02 0.000000e+00 0.000000e+00
5.840000e-02 0.000000e+00 0.000000e+00
7.300000e-02 0.000000e+00 0.000000e+00
8.760000e-02 0.000000e+00 0.000000e+00
1.022000e-01 0.000000e+00 0.000000e+00
1.168000e-01 0.000000e+00 0.000000e+00
1.314000e-01 0.000000e+00 0.000000e+00
1.460000e-01 0.000000e+00 0.000000e+00
1.606000e-01 0.000000e+00 0.000000e+00
1.752000e-01 0.000000e+00 0.000000e+00
1.898000e-01 0.000000e+00 0.000000e+00
2.044000e-01 0.000000e+00 0.000000e+00
2.190000e-01 0.000000e+00 0.000000e+00
2.336000e-01 0.000000e+00 0.000000e+00
2.482000e-01 0.000000e+00 0.000000e+00
2.628000e-01 0.000000e+00 0.000000e+00
2.774000e-01 0.000000e+00 0.000000e+00
2.920000e-01 0.000000e+00 0.000000e+00
3.066000e-01 0.000000e+00 0.000000e+00
3.212000e-01 0.000000e+00 0.000000e+00
3.358000e-01 0.000000e+00 0.000000e+00
3.504000e-01 0.000000e+00 0.000000e+00
3.650000e-01 0.000000e+00 0.000000e+00
3.796000e-01 0.000000e+00 0.000000e+00
3.942000e-01 0.000000e+00 0.000000e+00
4.088000e-01 0.000000e+00 0.000000e+00
4.234000e-01 0.000000e+00 0.000000e+00
4.380000e-01 0.000000e+00 0.000000e+00
4.526000e-01 0.000000e+00 0.000000e+00
4.672000e-01 0.000000e+00 0.000000e+00
4.818000e-01 0.000000e+00 0.000000e+00
4.964000e-01 0.000000e+00 0.000000e+00
5.110000e-01 0.000000e+00 0.000000e+00
5.256000e-01 0.000000e+00 0.000000e+00
5.402000e-01 0.000000e+00 0.000000e+00
5.548000e-01 0.000000e+00 0.000000e+00
5.694000e-01 0.000000e+00 0.000000e+00
5.840000e-01 0.000000e+00 0.000000e+00
0.000000e+00 1.460000e-02 0.000000e+00
1.460000e-02 1.460000e-02 0.000000e+00
2.920000e-02 1.460000e-02 0.000000e+00
4.380000e-02 1.460000e-02 0.000000e+00
5.840000e-02 1.460000e-02 0.000000e+00
7.300000e-02 1.460000e-02 0.000000e+00
8.760000e-02 1.460000e-02 0.000000e+00
1.022000e-01 1.460000e-02 0.000000e+00
1.168000e-01 1.460000e-02 0.000000e+00
1.314000e-01 1.460000e-02 0.000000e+00
1.460000e-01 1.460000e-02 0.000000e+00
1.606000e-01 1.460000e-02 0.000000e+00
1.752000e-01 1.460000e-02 0.000000e+00
1.898000e-01 1.460000e-02 0.000000e+00
2.044000e-01 1.460000e-02 0.000000e+00
2.190000e-01 1.460000e-02 0.000000e+00
2.336000e-01 1.460000e-02 0.000000e+00
2.482000e-01 1.460000e-02 0.000000e+00
2.628000e-01 1.460000e-02 0.000000e+00
2.774000e-01 1.460000e-02 0.000000e+00
2.920000e-01 1.460000e-02 0.000000e+00
3.066000e-01 1.460000e-02 0.000000e+00
3.212000e-01 1.460000e-02 0.000000e+00
3.358000e-01 1.460000e-02 0.000000e+00
3.504000e-01 1.460000e-02 0.000000e+00
3.650000e-01 1.460000e-02 0.000000e+00
3.796000e-01 1.460000e-02 0.000000e+00
3.942000e-01 1.460000e-02 0.000000e+00
4.088000e-01 1.460000e-02 0.000000e+00
4.234000e-01 1.460000e-02 0.000000e+00
4.380000e-01 1.460000e-02 0.000000e+00
4.526000e-01 1.460000e-02 0.000000e+00
4.672000e-01 1.460000e-02 0.000000e+00
4.818000e-01 1.460000e-02 0.000000e+00
4.964000e-01 1.460000e-02 0.000000e+00
5.110000e-01 1.460000e-02 0.000000e+00
5.256000e-01 1.460000e-02 0.000000e+00
5.402000e-01 1.460000e-02 0.000000e+00
5.548000e-01 1.460000e-02 0.000000e+00
5.694000e-01 1.460000e-02 0.000000e+00
5.840000e-01 1.460000e-02 0.000000e+00
0.000000e+00 2.920000e-02 0.000000e+00
1.460000e-02 2.920000e-02 0.000000e+00
2.920000e-02 2.920000e-02 0.000000e+00
4.380000e-02 2.920000e-02 0.000000e+00
5.840000e-02 2.920000e-02 0.000000e+00
7.300000e-02 2.920000e-02 0.000000e+00
8.760000e-02 2.920000e-02 0.000000e+00
1.022000e-01 2.920000e-02 0.000000e+00
1.168000e-01 2.920000e-02 0.000000e+00
1.314000e-01 2.920000e-02 0.000000e+00
1.460000e-01 2.920000e-02 0.000000e+00
1.606000e-01 2.920000e-02 0.000000e+00
1.752000e-01 2.920000e-02 0.000000e+00
1.898000e-01 2.920000e-02 0.000000e+00
2.044000e-01 2.920000e-02 0.000000e+00
2.190000e-01 2.920000e-02 0.000000e+00
2.336000e-01 2.920000e-02 0.000000e+00
2.482000e-01 2.920000e-02 0.000000e+00
2.628000e-01 2.920000e-02 0.000000e+00
2.774000e-01 2.920000e-02 0.000000e+00
2.920000e-01 2.920000e-02 0.000000e+00
3.066000e-01 2.920000e-02 0.000000e+00
3.212000e-01 2.920000e-02 0.000000e+00
3.358000e-01 2.920000e-02 0.000000e+00
3.504000e-01 2.920000e-02 0.000000e+00
3.650000e-01 2.920000e-02 0.000000e+00
3.796000e-01 2.920000e-02 0.000000e+00
3.942000e-01 2.920000e-02 0.000000e+00
4.088000e-01 2.920000e-02 0.000000e+00
4.234000e-01 2.920000e-02 0.000000e+00
4.380000e-01 2.920000e-02 0.000000e+00
4.526000e-01 2.920000e-02 0.000000e+00
4.672000e-01 2.920000e-02 0.000000e+00
4.818000e-01 2.920000e-02 0.000000e+00
4.964000e-01 2.920000e-02 0.000000e+00
5.110000e-01 2.920000e-02 0.000000e+00
5.256000e-01 2.920000e-02 0.000000e+00
5.402000e-01 2.920000e-02 0.000000e+00
5.548000e-01 2.920000e-02 0.000000e+00
5.694000e-01 2.920000e-02 0.000000e+00
5.840000e-01 2.920000e-02 0.000000e+00
0.000000e+00 4.380000e-02 0.000000e+00
1.460000e-02 4.380000e-02 0.000000e+00
2.920000e-02 4.380000e-02 0.000000e+00
4.380000e-02 4.380000e-02 0.000000e+00
5.840000e-02 4.380000e-02 0.000000e+00
7.300000e-02 4.380000e-02 0.000000e+00
8.760000e-02 4.380000e-02 0.000000e+00
1.022000e-01 4.380000e-02 0.000000e+00
1.168000e-01 4.380000e-02 0.000000e+00
1.314000e-01 4.380000e-02 0.000000e+00
1.460000e-01 4.380000e-02 0.000000e+00
1.606000e-01 4.380000e-02 0.000000e+00
1.752000e-01 4.380000e-02 0.000000e+00
1.898000e-01 4.380000e-02 0.000000e+00
2.044000e-01 4.380000e-02 0.000000e+00
2.190000e-01 4.380000e-02 0.000000e+00
2.336000e-01 4.380000e-02 0.000000e+00
2.482000e-01 4.380000e-02 0.000000e+00
2.628000e-01 4.380000e-02 0.000000e+00
2.774000e-01 4.380000e-02 0.000000e+00
2.920000e-01 4.380000e-02 0.000000e+00
3.066000e-01 4.380000e-02 0.000000e+00
3.212000e-01 4.380000e-02 0.000000e+00
3.358000e-01 4.380000e-02 0.000000e+00
3.504000e-01 4.380000e-02 0.000000e+00
3.650000e-01 4.380000e-02 0.000000e+00
3.796000e-01 4.380000e-02 0.000000e+00
3.942000e-01 4.380000e-02 0.000000e+00
4.088000e-01 4.380000e-02 0.000000e+00
4.234000e-01 4.380000e-02 0.000000e+00
4.380000e-01 4.380000e-02 0.000000e+00
4.526000e-01 4.380000e-02 0.000000e+00
4.672000e-01 4.380000e-02 0.000000e+00
4.818000e-01 4.380000e-02 0.000000e+00
4.964000e-01 4.380000e-02 0.000000e+00
5.110000e-01 4.380000e-02 0.000000e+00
5.256000e-01 4.380000e-02 0.000000e+00
5.402000e-01 4.380000e-02 0.000000e+00
5.548000e-01 4.380000e-02 0.000000e+00
5.694000e-01 4.380000e-02 0.000000e+00
5.840000e-01 4.380000e-02 0.000000e+00
0.000000e+00 5.840000e-02 0.000000e+00
1.460000e-02 5.840000e-02 0.000000e+00
2.920000e-02 5.840000e-02 0.000000e+00
4.380000e-02 5.840000e-02 0.000000e+00
5.840000e-02 5.840000e-02 0.000000e+00
7.300000e-02 5.840000e-02 0.000000e+00
8.760000e-02 5.840000e-02 0.000000e+00
1.022000e-01 5.840000e-02 0.000000e+00
1.168000e-01 5.840000e-02 0.000000e+00
1.314000e-01 5.840000e-02 0.000000e+00
1.460000e-01 5.840000e-02 0.000000e+00
1.606000e-01 5.840000e-02 0.000000e+00
1.752000e-01 5.840000e-02 0.000000e+00
1.898000e-01 5.840000e-02 0.000000e+00
2.044000e-01 5.840000e-02 0.000000e+00
2.190000e-01 5.840000e-02 0.000000e+00
2.336000e-01 5.840000e-02 0.000000e+00
2.482000e-01 5.840000e-02 0.000000e+00
2.628000e-01 5.840000e-02 0.000000e+00
2.774000e-01 5.840000e-02 0.000000e+00
2.920000e-01 5.840000e-02 0.000000e+00
3.066000e-01 5.840000e-02 0.000000e+00
3.212000e-01 5.840000e-02 0.000000e+00
3.358000e-01 5.840000e-02 0.000000e+00
3.504000e-01 5.840000e-02 0.000000e+00
3.650000e-01 5.840000e-02 0.000000e+00
3.796000e-01 5.840000e-02 0.000000e+00
3.942000e-01 5.840000e-02 0.000000e+00
4.088000e-01 5.840000e-02 0.000000e+00
4.234000e-01 5.840000e-02 0.000000e+00
4.380000e-01 5.840000e-02 0.000000e+00
4.526000e-01 5.840000e-02 0.000000e+00
4.672000e-01 5.840000e-02 0.000000e+00
4.818000e-01 5.840000e-02 0.000000e+00
4.964000e-01 5.840000e-02 0.000000e+00
5.110000e-01 5.840000e-02 0.000000e+00
5.256000e-01 5.840000e-02 0.000000e+00
5.402000e-01 5.840000e-02 0.000000e+00
5.548000e-01 5.840000e-02 0.000000e+00
5.694000e-01 5.840000e-02 0.000000e+00
5.840000e-01 5.840000e-02 0.000000e+00
0.000000e+00 7.300000e-02 0.000000e+00
1.460000e-02 7.300000e-02 0.000000e+00
2.920000e-02 7.300000e-02 0.000000e+00
4.380000e-02 7.300000e-02 0.000000e+00
5.840000e-02 7.300000e-02 0.000000e+00
7.300000e-02 7.300000e-02 0.000000e+00
8.760000e-02 7.300000e-02 0.000000e+00
1.022000e-01 7.300000e-02 0.000000e+00
1.168000e-01 7.300000e-02 0.000000e+00
1.314000e-01 7.300000e-02 0.000000e+00
1.460000e-01 7.300000e-02 0.000000e+00
1.606000e-01 7.300000e-02 0.000000e+00
1.752000e-01 7.300000e-02 0.000000e+00
1.898000e-01 7.300000e-02 0.000000e+00
2.044000e-01 7.300000e-02 0.000000e+00
2.190000e-01 7.300000e-02 0.000000e+00
2.336000e-01 7.300000e-02 0.000000e+00
2.482000e-01 7.300000e-02 0.000000e+00
2.628000e-01 7.300000e-02 0.000000e+00
2.774000e-01 7.300000e-02 0.000000e+00
2.920000e-01 7.300000e-02 0.000000e+00
3.066000e-01 7.300000e-02 0.000000e+00
3.212000e-01 7.300000e-02 0.000000e+00
3.358000e-01 7.300000e-02 0.000000e+00
3.504000e-01 7.300000e-02 0.000000e+00
3.650000e-01 7.300000e-02 0.000000e+00
3.796000e-01 7.300000e-02 0.000000e+00
3.942000e-01 7.300000e-02 0.000000e+00
4.088000e-01 7.300000e-02 0.000000e+00
4.234000e-01 7.300000e-02 0.000000e+00
4.380000e-01 7.300000e-02 0.000000e+00
4.526000e-01 7.300000e-02 0.000000e+00
4.672000e-01 7.300000e-02 0.000000e+00
4.818000e-01 7.300000e-02 0.000000e+00
4.964000e-01 7.300000e-02 0.000000e+00
5.110000e-01 7.300000e-02 0.000000e+00
5.256000e-01 7.300000e-02 0.000000e+00
5.402000e-01 7.300000e-02 0.000000e+00
5.548000e-01 7.300000e-02 0.000000e+00
5.694000e-01 7.300000e-02 0.000000e+00
5.840000e-01 7.300000e-02 0.000000e+00
0.000000e+00 8.760000e-02 0.000000e+00
1.460000e-02 8.760000e-02 0.000000e+00
2.920000e-02 8.760000e-02 0.000000e+00
4.380000e-02 8.760000e-02 0.000000e+00
5.840000e-02 8.760000e-02 0.000000e+00
7.300000e-02 8.760000e-02 0.000000e+00
8.760000e-02 8.760000e-02 0.000000e+00
1.022000e-01 8.760000e-02 0.000000e+00
[...]
POINT_DATA 11767
VECTORS Velocity float
0.000000e+00 0.000000e+00 0.000000e+00
1.070264e-02 0.000000e+00 0.000000e+00
8.220684e-03 0.000000e+00 0.000000e+00
3.667153e-03 0.000000e+00 0.000000e+00
-2.022181e-03 0.000000e+00 0.000000e+00
-6.264232e-03 0.000000e+00 0.000000e+00
-9.637555e-03 0.000000e+00 0.000000e+00
-1.185693e-02 0.000000e+00 0.000000e+00
-1.319235e-02 0.000000e+00 0.000000e+00
-1.380411e-02 0.000000e+00 0.000000e+00
-1.391132e-02 0.000000e+00 0.000000e+00
-1.346009e-02 0.000000e+00 0.000000e+00
-1.229641e-02 0.000000e+00 0.000000e+00
-1.002671e-02 0.000000e+00 0.000000e+00
-6.429576e-03 0.000000e+00 0.000000e+00
-1.080362e-03 0.000000e+00 0.000000e+00
5.750100e-03 0.000000e+00 0.000000e+00
1.350650e-02 0.000000e+00 0.000000e+00
1.987981e-02 0.000000e+00 0.000000e+00
2.485284e-02 0.000000e+00 0.000000e+00
2.820211e-02 0.000000e+00 0.000000e+00
3.064334e-02 0.000000e+00 0.000000e+00
3.267114e-02 0.000000e+00 0.000000e+00
3.484857e-02 0.000000e+00 0.000000e+00
3.721562e-02 0.000000e+00 0.000000e+00
3.981252e-02 0.000000e+00 0.000000e+00
4.254588e-02 0.000000e+00 0.000000e+00
4.545866e-02 0.000000e+00 0.000000e+00
4.857412e-02 0.000000e+00 0.000000e+00
5.193379e-02 0.000000e+00 0.000000e+00
5.555511e-02 0.000000e+00 0.000000e+00
5.918721e-02 0.000000e+00 0.000000e+00
6.280046e-02 0.000000e+00 0.000000e+00
6.572379e-02 0.000000e+00 0.000000e+00
6.808823e-02 0.000000e+00 0.000000e+00
6.913078e-02 0.000000e+00 0.000000e+00
6.837638e-02 0.000000e+00 0.000000e+00
6.604453e-02 0.000000e+00 0.000000e+00
5.667397e-02 0.000000e+00 0.000000e+00
4.425786e-02 0.000000e+00 0.000000e+00
0.000000e+00 0.000000e+00 0.000000e+00
0.000000e+00 -4.580876e-14 0.000000e+00
1.070264e-02 -4.417111e-15 0.000000e+00
8.220684e-03 -2.939688e-14 0.000000e+00
3.667153e-03 2.447018e-15 0.000000e+00
-2.022181e-03 2.127174e-14 0.000000e+00
-6.264232e-03 -9.089626e-16 0.000000e+00
-9.637555e-03 1.079236e-14 0.000000e+00
-1.185693e-02 9.764048e-15 0.000000e+00
-1.319235e-02 -1.937083e-14 0.000000e+00
-1.380411e-02 -2.654112e-15 0.000000e+00
-1.391132e-02 -4.800927e-14 0.000000e+00
-1.346009e-02 -5.478459e-15 0.000000e+00
-1.229641e-02 -3.573783e-15 0.000000e+00
-1.002671e-02 -9.951275e-14 0.000000e+00
-6.429576e-03 -3.749019e-14 0.000000e+00
-1.080362e-03 -5.558849e-14 0.000000e+00
5.750100e-03 -1.347616e-13 0.000000e+00
1.350650e-02 -7.860638e-14 0.000000e+00
1.987981e-02 -1.539838e-13 0.000000e+00
2.485284e-02 -1.816049e-13 0.000000e+00
2.820211e-02 -1.257368e-13 0.000000e+00
3.064334e-02 -1.137870e-13 0.000000e+00
3.267114e-02 4.922700e-15 0.000000e+00
3.484857e-02 8.421806e-14 0.000000e+00
3.721562e-02 1.088102e-13 0.000000e+00
3.981252e-02 2.262164e-13 0.000000e+00
4.254588e-02 1.172624e-13 0.000000e+00
4.545866e-02 2.084433e-13 0.000000e+00
4.857412e-02 1.381562e-13 0.000000e+00
5.193379e-02 1.110858e-13 0.000000e+00
5.555511e-02 8.102358e-14 0.000000e+00
5.918721e-02 4.359350e-14 0.000000e+00
6.280046e-02 2.752117e-15 0.000000e+00
6.572379e-02 2.705595e-14 0.000000e+00
6.808823e-02 -3.620673e-14 0.000000e+00
6.913078e-02 2.440454e-14 0.000000e+00
6.837638e-02 -5.810297e-14 0.000000e+00
6.604453e-02 4.047923e-14 0.000000e+00
5.667397e-02 -8.812441e-14 0.000000e+00
4.425786e-02 3.040830e-14 0.000000e+00
0.000000e+00 -5.045401e-14 0.000000e+00
0.000000e+00 -6.958752e-14 0.000000e+00
1.070264e-02 -4.614981e-14 0.000000e+00
8.220684e-03 -3.800276e-14 0.000000e+00
3.667153e-03 -2.061356e-14 0.000000e+00
-2.022181e-03 1.421961e-14 0.000000e+00
-6.264232e-03 -1.153155e-14 0.000000e+00
-9.637555e-03 -9.375057e-15 0.000000e+00
-1.185693e-02 1.223488e-14 0.000000e+00
-1.319235e-02 -2.969183e-14 0.000000e+00
-1.380411e-02 1.876984e-15 0.000000e+00
-1.391132e-02 -5.335033e-14 0.000000e+00
-1.346009e-02 -1.288403e-14 0.000000e+00
-1.229641e-02 7.974309e-15 0.000000e+00
-1.002671e-02 -1.348365e-13 0.000000e+00
-6.429576e-03 -1.286136e-14 0.000000e+00
-1.080362e-03 -6.950832e-14 0.000000e+00
5.750100e-03 -1.144156e-13 0.000000e+00
1.350650e-02 -9.206493e-14 0.000000e+00
1.987981e-02 -1.115967e-13 0.000000e+00
2.485284e-02 -1.817934e-13 0.000000e+00
2.820211e-02 -9.493963e-14 0.000000e+00
3.064334e-02 -8.737799e-14 0.000000e+00
3.267114e-02 5.402755e-14 0.000000e+00
3.484857e-02 1.094849e-13 0.000000e+00
3.721562e-02 1.761067e-13 0.000000e+00
3.981252e-02 3.211011e-13 0.000000e+00
4.254588e-02 2.378105e-13 0.000000e+00
4.545866e-02 2.913679e-13 0.000000e+00
4.857412e-02 2.415880e-13 0.000000e+00
5.193379e-02 1.930460e-13 0.000000e+00
5.555511e-02 1.364663e-13 0.000000e+00
5.918721e-02 9.626384e-14 0.000000e+00
6.280046e-02 6.728653e-14 0.000000e+00
6.572379e-02 6.067524e-14 0.000000e+00
6.808823e-02 1.183012e-14 0.000000e+00
6.913078e-02 3.207822e-14 0.000000e+00
6.837638e-02 -3.578188e-14 0.000000e+00
6.604453e-02 1.376490e-14 0.000000e+00
5.667397e-02 -4.069343e-14 0.000000e+00
4.425786e-02 1.929259e-14 0.000000e+00
0.000000e+00 -1.102532e-13 0.000000e+00
0.000000e+00 -2.289908e-14 0.000000e+00
1.070264e-02 5.185904e-15 0.000000e+00
8.220684e-03 -3.763643e-14 0.000000e+00
3.667153e-03 -2.452301e-14 0.000000e+00
-2.022181e-03 -6.225217e-15 0.000000e+00
-6.264232e-03 -2.469537e-14 0.000000e+00
-9.637555e-03 2.475602e-15 0.000000e+00
-1.185693e-02 1.046928e-14 0.000000e+00
-1.319235e-02 -2.766420e-14 0.000000e+00
-1.380411e-02 2.063773e-14 0.000000e+00
-1.391132e-02 -1.711132e-14 0.000000e+00
-1.346009e-02 -1.956736e-14 0.000000e+00
-1.229641e-02 2.276783e-14 0.000000e+00
-1.002671e-02 -1.440472e-13 0.000000e+00
-6.429576e-03 1.373791e-14 0.000000e+00
-1.080362e-03 -3.639434e-14 0.000000e+00
5.750100e-03 -1.136976e-13 0.000000e+00
1.350650e-02 1.256226e-14 0.000000e+00
1.987981e-02 -8.356388e-14 0.000000e+00
2.485284e-02 -7.772877e-14 0.000000e+00
2.820211e-02 -2.615950e-14 0.000000e+00
3.064334e-02 -1.928567e-14 0.000000e+00
3.267114e-02 7.161454e-14 0.000000e+00
3.484857e-02 1.524407e-13 0.000000e+00
3.721562e-02 1.728279e-13 0.000000e+00
3.981252e-02 2.941061e-13 0.000000e+00
4.254588e-02 2.418616e-13 0.000000e+00
4.545866e-02 3.271997e-13 0.000000e+00
4.857412e-02 2.309056e-13 0.000000e+00
5.193379e-02 2.562744e-13 0.000000e+00
5.555511e-02 1.734249e-13 0.000000e+00
5.918721e-02 1.732567e-13 0.000000e+00
6.280046e-02 1.094402e-13 0.000000e+00
6.572379e-02 1.147224e-13 0.000000e+00
6.808823e-02 3.777427e-14 0.000000e+00
6.913078e-02 7.002979e-14 0.000000e+00
6.837638e-02 -3.829531e-15 0.000000e+00
6.604453e-02 4.482107e-14 0.000000e+00
5.667397e-02 -7.623228e-14 0.000000e+00
4.425786e-02 3.351291e-14 0.000000e+00
0.000000e+00 -1.281440e-13 0.000000e+00
0.000000e+00 -1.170622e-14 0.000000e+00
1.070264e-02 -3.455404e-14 0.000000e+00
8.220684e-03 -4.224846e-14 0.000000e+00
3.667153e-03 -2.892912e-14 0.000000e+00
-2.022181e-03 7.690163e-15 0.000000e+00
-6.264232e-03 -1.039853e-14 0.000000e+00
-9.637555e-03 1.195649e-14 0.000000e+00
-1.185693e-02 1.117367e-14 0.000000e+00
-1.319235e-02 -2.358028e-14 0.000000e+00
-1.380411e-02 7.061050e-16 0.000000e+00
-1.391132e-02 -1.753245e-14 0.000000e+00
-1.346009e-02 -1.165410e-14 0.000000e+00
-1.229641e-02 2.507291e-14 0.000000e+00
-1.002671e-02 -1.382832e-13 0.000000e+00
-6.429576e-03 2.355173e-14 0.000000e+00
-1.080362e-03 -4.962984e-14 0.000000e+00
5.750100e-03 -7.515450e-14 0.000000e+00
1.350650e-02 -3.724724e-14 0.000000e+00
1.987981e-02 -8.502666e-14 0.000000e+00
2.485284e-02 -1.106429e-13 0.000000e+00
2.820211e-02 -4.504424e-14 0.000000e+00
3.064334e-02 -5.071357e-14 0.000000e+00
3.267114e-02 4.608114e-14 0.000000e+00
3.484857e-02 1.288059e-13 0.000000e+00
3.721562e-02 1.335988e-13 0.000000e+00
3.981252e-02 2.960648e-13 0.000000e+00
4.254588e-02 1.993237e-13 0.000000e+00
4.545866e-02 2.713792e-13 0.000000e+00
4.857412e-02 2.006635e-13 0.000000e+00
5.193379e-02 1.891912e-13 0.000000e+00
5.555511e-02 1.697809e-13 0.000000e+00
5.918721e-02 1.269995e-13 0.000000e+00
6.280046e-02 9.763310e-14 0.000000e+00
6.572379e-02 6.793610e-14 0.000000e+00
6.808823e-02 4.199173e-14 0.000000e+00
6.913078e-02 4.454865e-14 0.000000e+00
6.837638e-02 1.664116e-14 0.000000e+00
6.604453e-02 4.525294e-15 0.000000e+00
5.667397e-02 -2.392867e-14 0.000000e+00
4.425786e-02 -1.626366e-14 0.000000e+00
0.000000e+00 -1.294343e-13 0.000000e+00
0.000000e+00 -7.711825e-14 0.000000e+00
1.070264e-02 -8.309236e-14 0.000000e+00
8.220684e-03 -1.164674e-14 0.000000e+00
3.667153e-03 -1.770437e-15 0.000000e+00
-2.022181e-03 -8.000362e-16 0.000000e+00
-6.264232e-03 -4.806986e-15 0.000000e+00
-9.637555e-03 -7.334130e-16 0.000000e+00
-1.185693e-02 1.969919e-14 0.000000e+00
-1.319235e-02 -2.462666e-14 0.000000e+00
-1.380411e-02 -2.535453e-14 0.000000e+00
-1.391132e-02 -4.919080e-15 0.000000e+00
-1.346009e-02 -3.239442e-14 0.000000e+00
-1.229641e-02 -2.063949e-14 0.000000e+00
-1.002671e-02 -7.606649e-14 0.000000e+00
-6.429576e-03 -2.122188e-14 0.000000e+00
-1.080362e-03 -4.839960e-14 0.000000e+00
5.750100e-03 -1.147660e-13 0.000000e+00
1.350650e-02 -3.781709e-14 0.000000e+00
1.987981e-02 -1.313175e-13 0.000000e+00
2.485284e-02 -1.367454e-13 0.000000e+00
2.820211e-02 -1.061909e-13 0.000000e+00
3.064334e-02 -5.896480e-14 0.000000e+00
3.267114e-02 -6.187813e-15 0.000000e+00
3.484857e-02 3.550643e-14 0.000000e+00
3.721562e-02 6.557418e-14 0.000000e+00
3.981252e-02 1.489193e-13 0.000000e+00
4.254588e-02 9.730955e-14 0.000000e+00
4.545866e-02 1.570060e-13 0.000000e+00
4.857412e-02 1.218369e-13 0.000000e+00
5.193379e-02 7.677320e-14 0.000000e+00
5.555511e-02 5.950584e-14 0.000000e+00
5.918721e-02 5.674871e-14 0.000000e+00
6.280046e-02 1.595131e-14 0.000000e+00
6.572379e-02 5.034739e-14 0.000000e+00
6.808823e-02 -1.999518e-14 0.000000e+00
6.913078e-02 5.009767e-14 0.000000e+00
6.837638e-02 -4.205630e-14 0.000000e+00
6.604453e-02 2.338417e-14 0.000000e+00
5.667397e-02 -7.672375e-14 0.000000e+00
4.425786e-02 4.891078e-14 0.000000e+00
0.000000e+00 -1.033291e-14 0.000000e+00
0.000000e+00 0.000000e+00 0.000000e+00
1.070264e-02 0.000000e+00 0.000000e+00
8.220684e-03 0.000000e+00 0.000000e+00
3.667153e-03 0.000000e+00 0.000000e+00
-2.022181e-03 0.000000e+00 0.000000e+00
-6.264232e-03 0.000000e+00 0.000000e+00
-9.637555e-03 0.000000e+00 0.000000e+00
-1.185693e-02 0.000000e+00 0.000000e+00
-1.319235e-02 0.000000e+00 0.000000e+00
-1.380411e-02 0.000000e+00 0.000000e+00
-1.391132e-02 0.000000e+00 0.000000e+00
-1.346009e-02 0.000000e+00 0.000000e+00
-1.229641e-02 0.000000e+00 0.000000e+00
-1.002671e-02 0.000000e+00 0.000000e+00
-6.429576e-03 0.000000e+00 0.000000e+00
-1.080362e-03 0.000000e+00 0.000000e+00
5.750100e-03 0.000000e+00 0.000000e+00
1.350650e-02 0.000000e+00 0.000000e+00
1.987981e-02 0.000000e+00 0.000000e+00
2.485284e-02 0.000000e+00 0.000000e+00
2.820211e-02 0.000000e+00 0.000000e+00
3.064334e-02 0.000000e+00 0.000000e+00
3.267114e-02 0.000000e+00 0.000000e+00
3.484857e-02 0.000000e+00 0.000000e+00
3.721562e-02 0.000000e+00 0.000000e+00
3.981252e-02 0.000000e+00 0.000000e+00
4.254588e-02 0.000000e+00 0.000000e+00
4.545866e-02 0.000000e+00 0.000000e+00
4.857412e-02 0.000000e+00 0.000000e+00
5.193379e-02 0.000000e+00 0.000000e+00
5.555511e-02 0.000000e+00 0.000000e+00
5.918721e-02 0.000000e+00 0.000000e+00
6.280046e-02 0.000000e+00 0.000000e+00
6.572379e-02 0.000000e+00 0.000000e+00
6.808823e-02 0.000000e+00 0.000000e+00
6.913078e-02 0.000000e+00 0.000000e+00
6.837638e-02 0.000000e+00 0.000000e+00
6.604453e-02 0.000000e+00 0.000000e+00
5.667397e-02 0.000000e+00 0.000000e+00
4.425786e-02 0.000000e+00 0.000000e+00
0.000000e+00 0.000000e+00 0.000000e+00
0.000000e+00 0.000000e+00 -8.429175e-03
-9.729588e-03 0.000000e+00 -1.969135e-03
-1.827703e-02 0.000000e+00 3.842791e-03
-2.724439e-02 0.000000e+00 3.854901e-03
-3.491856e-02 0.000000e+00 3.495188e-03
-4.174303e-02 0.000000e+00 2.111807e-03
-4.728179e-02 0.000000e+00 1.195501e-03
-5.213172e-02 0.000000e+00 1.957029e-04
-5.602797e-02 0.000000e+00 -6.296973e-04
-5.915306e-02 0.000000e+00 -1.277333e-03
-6.153037e-02 0.000000e+00 -1.842914e-03
-6.323156e-02 0.000000e+00 -2.488657e-03
-6.409218e-02 0.000000e+00 -3.412432e-03
-6.390540e-02 0.000000e+00 -4.607743e-03
-6.241591e-02 0.000000e+00 -6.131423e-03
-5.952560e-02 0.000000e+00 -7.708864e-03
-5.531498e-02 0.000000e+00 -9.067700e-03
-5.020831e-02 0.000000e+00 -9.084135e-03
-4.470239e-02 0.000000e+00 -8.041454e-03
-3.935336e-02 0.000000e+00 -6.877319e-03
-3.466112e-02 0.000000e+00 -5.712548e-03
-3.075246e-02 0.000000e+00 -5.024921e-03
-2.759134e-02 0.000000e+00 -4.757900e-03
-2.486166e-02 0.000000e+00 -4.801142e-03
-2.233986e-02 0.000000e+00 -4.936521e-03
-1.968650e-02 0.000000e+00 -5.122973e-03
-1.681015e-02 0.000000e+00 -5.346160e-03
-1.344477e-02 0.000000e+00 -5.628890e-03
-9.670831e-03 0.000000e+00 -5.957845e-03
-5.246757e-03 0.000000e+00 -6.327970e-03
-4.566387e-04 0.000000e+00 -6.563940e-03
4.834398e-03 0.000000e+00 -6.673440e-03
9.997409e-03 0.000000e+00 -6.372151e-03
1.491557e-02 0.000000e+00 -5.691004e-03
1.867200e-02 0.000000e+00 -4.833429e-03
2.129678e-02 0.000000e+00 -2.915857e-03
2.204332e-02 0.000000e+00 -2.226787e-03
2.198830e-02 0.000000e+00 2.494792e-03
1.902851e-02 0.000000e+00 3.815363e-03
1.408475e-02 0.000000e+00 1.887653e-02
0.000000e+00 0.000000e+00 3.814230e-02
0.000000e+00 -5.059874e-14 -8.429175e-03
-9.729588e-03 -1.640627e-14 -1.969135e-03
-1.827703e-02 1.069438e-14 3.842791e-03
-2.724439e-02 -1.661620e-14 3.854901e-03
-3.491856e-02 5.783584e-17 3.495188e-03
-4.174303e-02 -5.379861e-15 2.111807e-03
-4.728179e-02 -1.212284e-14 1.195501e-03
-5.213172e-02 -1.692489e-14 1.957029e-04
-5.602797e-02 -1.302709e-14 -6.296973e-04
-5.915306e-02 -2.341475e-14 -1.277333e-03
-6.153037e-02 -1.853946e-14 -1.842914e-03
-6.323156e-02 -3.176219e-14 -2.488657e-03
-6.409218e-02 -5.057632e-14 -3.412432e-03
-6.390540e-02 -2.637860e-14 -4.607743e-03
-6.241591e-02 -7.862812e-15 -6.131423e-03
-5.952560e-02 -5.875872e-14 -7.708864e-03
-5.531498e-02 -3.869909e-14 -9.067700e-03
-5.020831e-02 -7.347161e-14 -9.084135e-03
-4.470239e-02 -1.562172e-13 -8.041454e-03
-3.935336e-02 -1.450547e-13 -6.877319e-03
-3.466112e-02 -1.346363e-13 -5.712548e-03
-3.075246e-02 -1.397569e-13 -5.024921e-03
-2.759134e-02 -3.304953e-14 -4.757900e-03
-2.486166e-02 -1.426888e-14 -4.801142e-03
-2.233986e-02 1.876983e-13 -4.936521e-03
-1.968650e-02 2.237173e-13 -5.122973e-03
-1.681015e-02 2.699881e-13 -5.346160e-03
-1.344477e-02 3.393147e-13 -5.628890e-03
-9.670831e-03 2.870418e-13 -5.957845e-03
-5.246757e-03 2.863959e-13 -6.327970e-03
-4.566387e-04 2.122749e-13 -6.563940e-03
4.834398e-03 2.064118e-13 -6.673440e-03
9.997409e-03 1.374220e-13 -6.372151e-03
1.491557e-02 1.893865e-13 -5.691004e-03
1.867200e-02 1.061190e-13 -4.833429e-03
2.129678e-02 1.219386e-13 -2.915857e-03
2.204332e-02 3.304948e-14 -2.226787e-03
2.198830e-02 1.058200e-13 2.494792e-03
1.902851e-02 -2.126237e-14 3.815363e-03
1.408475e-02 1.194249e-13 1.887653e-02
0.000000e+00 -1.033630e-14 3.814230e-02
0.000000e+00 -7.458461e-14 -8.429175e-03
-9.729588e-03 -6.670419e-14 -1.969135e-03
-1.827703e-02 8.905766e-15 3.842791e-03
-2.724439e-02 -2.922957e-14 3.854901e-03
-3.491856e-02 -1.095850e-14 3.495188e-03
-4.174303e-02 6.249086e-15 2.111807e-03
-4.728179e-02 -1.923748e-14 1.195501e-03
-5.213172e-02 -1.985833e-14 1.957029e-04
-5.602797e-02 -3.511382e-14 -6.296973e-04
-5.915306e-02 -3.455195e-14 -1.277333e-03
-6.153037e-02 -4.348738e-14 -1.842914e-03
-6.323156e-02 -4.729542e-14 -2.488657e-03
-6.409218e-02 -5.375558e-14 -3.412432e-03
-6.390540e-02 -3.874316e-14 -4.607743e-03
-6.241591e-02 5.754477e-16 -6.131423e-03
-5.952560e-02 -7.969034e-14 -7.708864e-03
-5.531498e-02 -3.408954e-14 -9.067700e-03
-5.020831e-02 -7.406083e-14 -9.084135e-03
-4.470239e-02 -1.547104e-13 -8.041454e-03
-3.935336e-02 -1.474246e-13 -6.877319e-03
-3.466112e-02 -1.459800e-13 -5.712548e-03
-3.075246e-02 -1.572904e-13 -5.024921e-03
-2.759134e-02 2.173762e-15 -4.757900e-03
-2.486166e-02 -7.413974e-15 -4.801142e-03
-2.233986e-02 2.233273e-13 -4.936521e-03
-1.968650e-02 2.302202e-13 -5.122973e-03
-1.681015e-02 3.411863e-13 -5.346160e-03
-1.344477e-02 3.281309e-13 -5.628890e-03
-9.670831e-03 3.007801e-13 -5.957845e-03
-5.246757e-03 2.773688e-13 -6.327970e-03
-4.566387e-04 2.327755e-13 -6.563940e-03
4.834398e-03 2.421101e-13 -6.673440e-03
9.997409e-03 1.395547e-13 -6.372151e-03
1.491557e-02 2.090589e-13 -5.691004e-03
1.867200e-02 1.099511e-13 -4.833429e-03
2.129678e-02 1.288127e-13 -2.915857e-03
2.204332e-02 5.673567e-14 -2.226787e-03
2.198830e-02 1.132284e-13 2.494792e-03
1.902851e-02 -5.521694e-15 3.815363e-03
1.408475e-02 1.204770e-13 1.887653e-02
0.000000e+00 3.960674e-14 3.814230e-02
0.000000e+00 -4.055881e-14 -8.429175e-03
-9.729588e-03 -6.380631e-14 -1.969135e-03
-1.827703e-02 -2.759573e-15 3.842791e-03
-2.724439e-02 -3.256142e-14 3.854901e-03
-3.491856e-02 -7.739011e-15 3.495188e-03
-4.174303e-02 8.374300e-15 2.111807e-03
-4.728179e-02 -2.530194e-14 1.195501e-03
-5.213172e-02 -2.586375e-14 1.957029e-04
-5.602797e-02 -3.599797e-14 -6.296973e-04
-5.915306e-02 -3.811620e-14 -1.277333e-03
-6.153037e-02 -5.164322e-14 -1.842914e-03
-6.323156e-02 -4.087535e-14 -2.488657e-03
-6.409218e-02 -5.265262e-14 -3.412432e-03
-6.390540e-02 -4.168378e-14 -4.607743e-03
-6.241591e-02 -1.200400e-14 -6.131423e-03
-5.952560e-02 -8.347158e-14 -7.708864e-03
-5.531498e-02 -2.155813e-14 -9.067700e-03
-5.020831e-02 -4.914740e-14 -9.084135e-03
-4.470239e-02 -1.074708e-13 -8.041454e-03
-3.935336e-02 -6.962662e-14 -6.877319e-03
-3.466112e-02 -5.216517e-14 -5.712548e-03
-3.075246e-02 -8.320346e-14 -5.024921e-03
-2.759134e-02 3.815776e-14 -4.757900e-03
-2.486166e-02 -1.594151e-14 -4.801142e-03
-2.233986e-02 1.534901e-13 -4.936521e-03
-1.968650e-02 1.641031e-13 -5.122973e-03
-1.681015e-02 1.820269e-13 -5.346160e-03
-1.344477e-02 2.073587e-13 -5.628890e-03
-9.670831e-03 1.737887e-13 -5.957845e-03
-5.246757e-03 1.780105e-13 -6.327970e-03
-4.566387e-04 1.138028e-13 -6.563940e-03
4.834398e-03 1.821100e-13 -6.673440e-03
9.997409e-03 5.948185e-14 -6.372151e-03
1.491557e-02 1.792822e-13 -5.691004e-03
1.867200e-02 6.830423e-14 -4.833429e-03
2.129678e-02 1.139237e-13 -2.915857e-03
2.204332e-02 1.340510e-14 -2.226787e-03
2.198830e-02 8.119048e-14 2.494792e-03
1.902851e-02 -4.060785e-14 3.815363e-03
1.408475e-02 1.427666e-13 1.887653e-02
0.000000e+00 -1.679819e-14 3.814230e-02
0.000000e+00 -4.383280e-14 -8.429175e-03
-9.729588e-03 -5.546805e-14 -1.969135e-03
-1.827703e-02 -1.416875e-15 3.842791e-03
-2.724439e-02 -1.666536e-14 3.854901e-03
-3.491856e-02 -4.284669e-15 3.495188e-03
-4.174303e-02 -6.690331e-15 2.111807e-03
-4.728179e-02 -2.346466e-14 1.195501e-03
-5.213172e-02 -2.611234e-14 1.957029e-04
-5.602797e-02 -2.528470e-14 -6.296973e-04
-5.915306e-02 -2.828005e-14 -1.277333e-03
-6.153037e-02 -4.460082e-14 -1.842914e-03
-6.323156e-02 -3.890681e-14 -2.488657e-03
-6.409218e-02 -5.873065e-14 -3.412432e-03
-6.390540e-02 -4.457000e-14 -4.607743e-03
-6.241591e-02 -1.174969e-14 -6.131423e-03
-5.952560e-02 -8.141998e-14 -7.708864e-03
-5.531498e-02 -1.637128e-14 -9.067700e-03
-5.020831e-02 -5.550726e-14 -9.084135e-03
-4.470239e-02 -9.253127e-14 -8.041454e-03
-3.935336e-02 -7.599695e-14 -6.877319e-03
-3.466112e-02 -7.067516e-14 -5.712548e-03
-3.075246e-02 -9.884581e-14 -5.024921e-03
-2.759134e-02 2.277378e-14 -4.757900e-03
-2.486166e-02 -4.253183e-14 -4.801142e-03
-2.233986e-02 1.634652e-13 -4.936521e-03
-1.968650e-02 1.186284e-13 -5.122973e-03
-1.681015e-02 1.739805e-13 -5.346160e-03
-1.344477e-02 1.874382e-13 -5.628890e-03
-9.670831e-03 1.817931e-13 -5.957845e-03
-5.246757e-03 1.617978e-13 -6.327970e-03
-4.566387e-04 1.369406e-13 -6.563940e-03
4.834398e-03 1.741401e-13 -6.673440e-03
9.997409e-03 6.953950e-14 -6.372151e-03
1.491557e-02 1.559183e-13 -5.691004e-03
1.867200e-02 9.122764e-14 -4.833429e-03
2.129678e-02 7.386947e-14 -2.915857e-03
2.204332e-02 1.570290e-14 -2.226787e-03
2.198830e-02 7.294613e-14 2.494792e-03
1.902851e-02 -6.986974e-15 3.815363e-03
1.408475e-02 1.250283e-13 1.887653e-02
0.000000e+00 4.224601e-15 3.814230e-02
0.000000e+00 -8.947082e-14 -8.429175e-03
-9.729588e-03 -4.387863e-14 -1.969135e-03
-1.827703e-02 -2.284460e-15 3.842791e-03
-2.724439e-02 -1.673426e-14 3.854901e-03