# vtk DataFile Version 3.0
vtk output
ASCII
DATASET UNSTRUCTURED_GRID
POINTS 11767 float
0.000000e+00 0.000000e+00 0.000000e+00
1.460000e-02 0.000000e+00 0.000000e+00
2.920000e-02 0.000000e+00 0.000000e+00
4.380000e-02 0.000000e+00 0.000000e+00
5.840000e-02 0.000000e+00 0.000000e+00
7.300000e-02 0.000000e+00 0.000000e+00
8.760000e-02 0.000000e+00 0.000000e+00
1.022000e-01 0.000000e+00 0.000000e+00
1.168000e-01 0.000000e+00 0.000000e+00
1.314000e-01 0.000000e+00 0.000000e+00
1.460000e-01 0.000000e+00 0.000000e+00
1.606000e-01 0.000000e+00 0.000000e+00
1.752000e-01 0.000000e+00 0.000000e+00
1.898000e-01 0.000000e+00 0.000000e+00
2.044000e-01 0.000000e+00 0.000000e+00
2.190000e-01 0.000000e+00 0.000000e+00
2.336000e-01 0.000000e+00 0.000000e+00
2.482000e-01 0.000000e+00 0.000000e+00
2.628000e-01 0.000000e+00 0.000000e+00
2.774000e-01 0.000000e+00 0.000000e+00
2.920000e-01 0.000000e+00 0.000000e+00
3.066000e-01 0.000000e+00 0.000000e+00
3.212000e-01 0.000000e+00 0.000000e+00
3.358000e-01 0.000000e+00 0.000000e+00
3.504000e-01 0.000000e+00 0.000000e+00
3.650000e-01 0.000000e+00 0.000000e+00
3.796000e-01 0.000000e+00 0.000000e+00
3.942000e-01 0.000000e+00 0.000000e+00
4.088000e-01 0.000000e+00 0.000000e+00
4.234000e-01 0.000000e+00 0.000000e+00
4.380000e-01 0.000000e+00 0.000000e+00
4.526000e-01 0.000000e+00 0.000000e+00
4.672000e-01 0.000000e+00 0.000000e+00
4.818000e-01 0.000000e+00 0.000000e+00
4.964000e-01 0.000000e+00 0.000000e+00
5.110000e-01 0.000000e+00 0.000000e+00
5.256000e-01 0.000000e+00 0.000000e+00
5.402000e-01 0.000000e+00 0.000000e+00
5.548000e-01 0.000000e+00 0.000000e+00
5.694000e-01 0.000000e+00 0.000000e+00
5.840000e-01 0.000000e+00 0.000000e+00
0.000000e+00 1.460000e-02 0.000000e+00
1.460000e-02 1.460000e-02 0.000000e+00
2.920000e-02 1.460000e-02 0.000000e+00
4.380000e-02 1.460000e-02 0.000000e+00
5.840000e-02 1.460000e-02 0.000000e+00
7.300000e-02 1.460000e-02 0.000000e+00
8.760000e-02 1.460000e-02 0.000000e+00
1.022000e-01 1.460000e-02 0.000000e+00
1.168000e-01 1.460000e-02 0.000000e+00
1.314000e-01 1.460000e-02 0.000000e+00
1.460000e-01 1.460000e-02 0.000000e+00
1.606000e-01 1.460000e-02 0.000000e+00
1.752000e-01 1.460000e-02 0.000000e+00
1.898000e-01 1.460000e-02 0.000000e+00
2.044000e-01 1.460000e-02 0.000000e+00
2.190000e-01 1.460000e-02 0.000000e+00
2.336000e-01 1.460000e-02 0.000000e+00
2.482000e-01 1.460000e-02 0.000000e+00
2.628000e-01 1.460000e-02 0.000000e+00
2.774000e-01 1.460000e-02 0.000000e+00
2.920000e-01 1.460000e-02 0.000000e+00
3.066000e-01 1.460000e-02 0.000000e+00
3.212000e-01 1.460000e-02 0.000000e+00
3.358000e-01 1.460000e-02 0.000000e+00
3.504000e-01 1.460000e-02 0.000000e+00
3.650000e-01 1.460000e-02 0.000000e+00
3.796000e-01 1.460000e-02 0.000000e+00
3.942000e-01 1.460000e-02 0.000000e+00
4.088000e-01 1.460000e-02 0.000000e+00
4.234000e-01 1.460000e-02 0.000000e+00
4.380000e-01 1.460000e-02 0.000000e+00
4.526000e-01 1.460000e-02 0.000000e+00
4.672000e-01 1.460000e-02 0.000000e+00
4.818000e-01 1.460000e-02 0.000000e+00
4.964000e-01 1.460000e-02 0.000000e+00
5.110000e-01 1.460000e-02 0.000000e+00
5.256000e-01 1.460000e-02 0.000000e+00
5.402000e-01 1.460000e-02 0.000000e+00
5.548000e-01 1.460000e-02 0.000000e+00
5.694000e-01 1.460000e-02 0.000000e+00
5.840000e-01 1.460000e-02 0.000000e+00
0.000000e+00 2.920000e-02 0.000000e+00
1.460000e-02 2.920000e-02 0.000000e+00
2.920000e-02 2.920000e-02 0.000000e+00
4.380000e-02 2.920000e-02 0.000000e+00
5.840000e-02 2.920000e-02 0.000000e+00
7.300000e-02 2.920000e-02 0.000000e+00
8.760000e-02 2.920000e-02 0.000000e+00
1.022000e-01 2.920000e-02 0.000000e+00
1.168000e-01 2.920000e-02 0.000000e+00
1.314000e-01 2.920000e-02 0.000000e+00
1.460000e-01 2.920000e-02 0.000000e+00
1.606000e-01 2.920000e-02 0.000000e+00
1.752000e-01 2.920000e-02 0.000000e+00
1.898000e-01 2.920000e-02 0.000000e+00
2.044000e-01 2.920000e-02 0.000000e+00
2.190000e-01 2.920000e-02 0.000000e+00
2.336000e-01 2.920000e-02 0.000000e+00
2.482000e-01 2.920000e-02 0.000000e+00
2.628000e-01 2.920000e-02 0.000000e+00
2.774000e-01 2.920000e-02 0.000000e+00
2.920000e-01 2.920000e-02 0.000000e+00
3.066000e-01 2.920000e-02 0.000000e+00
3.212000e-01 2.920000e-02 0.000000e+00
3.358000e-01 2.920000e-02 0.000000e+00
3.504000e-01 2.920000e-02 0.000000e+00
3.650000e-01 2.920000e-02 0.000000e+00
3.796000e-01 2.920000e-02 0.000000e+00
3.942000e-01 2.920000e-02 0.000000e+00
4.088000e-01 2.920000e-02 0.000000e+00
4.234000e-01 2.920000e-02 0.000000e+00
4.380000e-01 2.920000e-02 0.000000e+00
4.526000e-01 2.920000e-02 0.000000e+00
4.672000e-01 2.920000e-02 0.000000e+00
4.818000e-01 2.920000e-02 0.000000e+00
4.964000e-01 2.920000e-02 0.000000e+00
5.110000e-01 2.920000e-02 0.000000e+00
5.256000e-01 2.920000e-02 0.000000e+00
5.402000e-01 2.920000e-02 0.000000e+00
5.548000e-01 2.920000e-02 0.000000e+00
5.694000e-01 2.920000e-02 0.000000e+00
5.840000e-01 2.920000e-02 0.000000e+00
0.000000e+00 4.380000e-02 0.000000e+00
1.460000e-02 4.380000e-02 0.000000e+00
2.920000e-02 4.380000e-02 0.000000e+00
4.380000e-02 4.380000e-02 0.000000e+00
5.840000e-02 4.380000e-02 0.000000e+00
7.300000e-02 4.380000e-02 0.000000e+00
8.760000e-02 4.380000e-02 0.000000e+00
1.022000e-01 4.380000e-02 0.000000e+00
1.168000e-01 4.380000e-02 0.000000e+00
1.314000e-01 4.380000e-02 0.000000e+00
1.460000e-01 4.380000e-02 0.000000e+00
1.606000e-01 4.380000e-02 0.000000e+00
1.752000e-01 4.380000e-02 0.000000e+00
1.898000e-01 4.380000e-02 0.000000e+00
2.044000e-01 4.380000e-02 0.000000e+00
2.190000e-01 4.380000e-02 0.000000e+00
2.336000e-01 4.380000e-02 0.000000e+00
2.482000e-01 4.380000e-02 0.000000e+00
2.628000e-01 4.380000e-02 0.000000e+00
2.774000e-01 4.380000e-02 0.000000e+00
2.920000e-01 4.380000e-02 0.000000e+00
3.066000e-01 4.380000e-02 0.000000e+00
3.212000e-01 4.380000e-02 0.000000e+00
3.358000e-01 4.380000e-02 0.000000e+00
3.504000e-01 4.380000e-02 0.000000e+00
3.650000e-01 4.380000e-02 0.000000e+00
3.796000e-01 4.380000e-02 0.000000e+00
3.942000e-01 4.380000e-02 0.000000e+00
4.088000e-01 4.380000e-02 0.000000e+00
4.234000e-01 4.380000e-02 0.000000e+00
4.380000e-01 4.380000e-02 0.000000e+00
4.526000e-01 4.380000e-02 0.000000e+00
4.672000e-01 4.380000e-02 0.000000e+00
4.818000e-01 4.380000e-02 0.000000e+00
4.964000e-01 4.380000e-02 0.000000e+00
5.110000e-01 4.380000e-02 0.000000e+00
5.256000e-01 4.380000e-02 0.000000e+00
5.402000e-01 4.380000e-02 0.000000e+00
5.548000e-01 4.380000e-02 0.000000e+00
5.694000e-01 4.380000e-02 0.000000e+00
5.840000e-01 4.380000e-02 0.000000e+00
0.000000e+00 5.840000e-02 0.000000e+00
1.460000e-02 5.840000e-02 0.000000e+00
2.920000e-02 5.840000e-02 0.000000e+00
4.380000e-02 5.840000e-02 0.000000e+00
5.840000e-02 5.840000e-02 0.000000e+00
7.300000e-02 5.840000e-02 0.000000e+00
8.760000e-02 5.840000e-02 0.000000e+00
1.022000e-01 5.840000e-02 0.000000e+00
1.168000e-01 5.840000e-02 0.000000e+00
1.314000e-01 5.840000e-02 0.000000e+00
1.460000e-01 5.840000e-02 0.000000e+00
1.606000e-01 5.840000e-02 0.000000e+00
1.752000e-01 5.840000e-02 0.000000e+00
1.898000e-01 5.840000e-02 0.000000e+00
2.044000e-01 5.840000e-02 0.000000e+00
2.190000e-01 5.840000e-02 0.000000e+00
2.336000e-01 5.840000e-02 0.000000e+00
2.482000e-01 5.840000e-02 0.000000e+00
2.628000e-01 5.840000e-02 0.000000e+00
2.774000e-01 5.840000e-02 0.000000e+00
2.920000e-01 5.840000e-02 0.000000e+00
3.066000e-01 5.840000e-02 0.000000e+00
3.212000e-01 5.840000e-02 0.000000e+00
3.358000e-01 5.840000e-02 0.000000e+00
3.504000e-01 5.840000e-02 0.000000e+00
3.650000e-01 5.840000e-02 0.000000e+00
3.796000e-01 5.840000e-02 0.000000e+00
3.942000e-01 5.840000e-02 0.000000e+00
4.088000e-01 5.840000e-02 0.000000e+00
4.234000e-01 5.840000e-02 0.000000e+00
4.380000e-01 5.840000e-02 0.000000e+00
4.526000e-01 5.840000e-02 0.000000e+00
4.672000e-01 5.840000e-02 0.000000e+00
4.818000e-01 5.840000e-02 0.000000e+00
4.964000e-01 5.840000e-02 0.000000e+00
5.110000e-01 5.840000e-02 0.000000e+00
5.256000e-01 5.840000e-02 0.000000e+00
5.402000e-01 5.840000e-02 0.000000e+00
5.548000e-01 5.840000e-02 0.000000e+00
5.694000e-01 5.840000e-02 0.000000e+00
5.840000e-01 5.840000e-02 0.000000e+00
0.000000e+00 7.300000e-02 0.000000e+00
1.460000e-02 7.300000e-02 0.000000e+00
2.920000e-02 7.300000e-02 0.000000e+00
4.380000e-02 7.300000e-02 0.000000e+00
5.840000e-02 7.300000e-02 0.000000e+00
7.300000e-02 7.300000e-02 0.000000e+00
8.760000e-02 7.300000e-02 0.000000e+00
1.022000e-01 7.300000e-02 0.000000e+00
1.168000e-01 7.300000e-02 0.000000e+00
1.314000e-01 7.300000e-02 0.000000e+00
1.460000e-01 7.300000e-02 0.000000e+00
1.606000e-01 7.300000e-02 0.000000e+00
1.752000e-01 7.300000e-02 0.000000e+00
1.898000e-01 7.300000e-02 0.000000e+00
2.044000e-01 7.300000e-02 0.000000e+00
2.190000e-01 7.300000e-02 0.000000e+00
2.336000e-01 7.300000e-02 0.000000e+00
2.482000e-01 7.300000e-02 0.000000e+00
2.628000e-01 7.300000e-02 0.000000e+00
2.774000e-01 7.300000e-02 0.000000e+00
2.920000e-01 7.300000e-02 0.000000e+00
3.066000e-01 7.300000e-02 0.000000e+00
3.212000e-01 7.300000e-02 0.000000e+00
3.358000e-01 7.300000e-02 0.000000e+00
3.504000e-01 7.300000e-02 0.000000e+00
3.650000e-01 7.300000e-02 0.000000e+00
3.796000e-01 7.300000e-02 0.000000e+00
3.942000e-01 7.300000e-02 0.000000e+00
4.088000e-01 7.300000e-02 0.000000e+00
4.234000e-01 7.300000e-02 0.000000e+00
4.380000e-01 7.300000e-02 0.000000e+00
4.526000e-01 7.300000e-02 0.000000e+00
4.672000e-01 7.300000e-02 0.000000e+00
4.818000e-01 7.300000e-02 0.000000e+00
4.964000e-01 7.300000e-02 0.000000e+00
5.110000e-01 7.300000e-02 0.000000e+00
5.256000e-01 7.300000e-02 0.000000e+00
5.402000e-01 7.300000e-02 0.000000e+00
5.548000e-01 7.300000e-02 0.000000e+00
5.694000e-01 7.300000e-02 0.000000e+00
5.840000e-01 7.300000e-02 0.000000e+00
0.000000e+00 8.760000e-02 0.000000e+00
1.460000e-02 8.760000e-02 0.000000e+00
2.920000e-02 8.760000e-02 0.000000e+00
4.380000e-02 8.760000e-02 0.000000e+00
5.840000e-02 8.760000e-02 0.000000e+00
7.300000e-02 8.760000e-02 0.000000e+00
8.760000e-02 8.760000e-02 0.000000e+00
1.022000e-01 8.760000e-02 0.000000e+00
[...]
POINT_DATA 11767
VECTORS Velocity float
0.000000e+00 0.000000e+00 0.000000e+00
2.724046e-02 0.000000e+00 0.000000e+00
4.666247e-02 0.000000e+00 0.000000e+00
6.235542e-02 0.000000e+00 0.000000e+00
7.550627e-02 0.000000e+00 0.000000e+00
8.716387e-02 0.000000e+00 0.000000e+00
9.741485e-02 0.000000e+00 0.000000e+00
1.064267e-01 0.000000e+00 0.000000e+00
1.140999e-01 0.000000e+00 0.000000e+00
1.205231e-01 0.000000e+00 0.000000e+00
1.258220e-01 0.000000e+00 0.000000e+00
1.302786e-01 0.000000e+00 0.000000e+00
1.341826e-01 0.000000e+00 0.000000e+00
1.378479e-01 0.000000e+00 0.000000e+00
1.414101e-01 0.000000e+00 0.000000e+00
1.447765e-01 0.000000e+00 0.000000e+00
1.477177e-01 0.000000e+00 0.000000e+00
1.499688e-01 0.000000e+00 0.000000e+00
1.512722e-01 0.000000e+00 0.000000e+00
1.514524e-01 0.000000e+00 0.000000e+00
1.504093e-01 0.000000e+00 0.000000e+00
1.481341e-01 0.000000e+00 0.000000e+00
1.446805e-01 0.000000e+00 0.000000e+00
1.402341e-01 0.000000e+00 0.000000e+00
1.350475e-01 0.000000e+00 0.000000e+00
1.295386e-01 0.000000e+00 0.000000e+00
1.240957e-01 0.000000e+00 0.000000e+00
1.191880e-01 0.000000e+00 0.000000e+00
1.150773e-01 0.000000e+00 0.000000e+00
1.119114e-01 0.000000e+00 0.000000e+00
1.094644e-01 0.000000e+00 0.000000e+00
1.074296e-01 0.000000e+00 0.000000e+00
1.053154e-01 0.000000e+00 0.000000e+00
1.025626e-01 0.000000e+00 0.000000e+00
9.885865e-02 0.000000e+00 0.000000e+00
9.405888e-02 0.000000e+00 0.000000e+00
8.736623e-02 0.000000e+00 0.000000e+00
7.998689e-02 0.000000e+00 0.000000e+00
6.590764e-02 0.000000e+00 0.000000e+00
4.944067e-02 0.000000e+00 0.000000e+00
0.000000e+00 0.000000e+00 0.000000e+00
0.000000e+00 -7.111682e-14 0.000000e+00
2.724046e-02 -4.439125e-14 0.000000e+00
4.666247e-02 -5.515247e-14 0.000000e+00
6.235542e-02 -1.356087e-14 0.000000e+00
7.550627e-02 -3.463027e-14 0.000000e+00
8.716387e-02 -5.881353e-14 0.000000e+00
9.741485e-02 -7.760472e-14 0.000000e+00
1.064267e-01 -9.994754e-14 0.000000e+00
1.140999e-01 -3.728364e-14 0.000000e+00
1.205231e-01 -9.335462e-14 0.000000e+00
1.258220e-01 -2.234016e-14 0.000000e+00
1.302786e-01 -1.841197e-14 0.000000e+00
1.341826e-01 -1.010204e-14 0.000000e+00
1.378479e-01 8.047722e-15 0.000000e+00
1.414101e-01 2.009318e-14 0.000000e+00
1.447765e-01 -1.798048e-14 0.000000e+00
1.477177e-01 5.330272e-14 0.000000e+00
1.499688e-01 2.248344e-14 0.000000e+00
1.512722e-01 6.164261e-14 0.000000e+00
1.514524e-01 6.637392e-14 0.000000e+00
1.504093e-01 6.632447e-15 0.000000e+00
1.481341e-01 -3.824387e-14 0.000000e+00
1.446805e-01 -1.331800e-13 0.000000e+00
1.402341e-01 -1.496111e-13 0.000000e+00
1.350475e-01 -2.438416e-13 0.000000e+00
1.295386e-01 -2.038247e-13 0.000000e+00
1.240957e-01 -1.826502e-13 0.000000e+00
1.191880e-01 -1.017562e-13 0.000000e+00
1.150773e-01 -8.541820e-14 0.000000e+00
1.119114e-01 -7.316660e-14 0.000000e+00
1.094644e-01 -1.486567e-13 0.000000e+00
1.074296e-01 -1.610181e-13 0.000000e+00
1.053154e-01 -2.095114e-13 0.000000e+00
1.025626e-01 -1.329837e-13 0.000000e+00
9.885865e-02 -1.682210e-13 0.000000e+00
9.405888e-02 -1.369502e-13 0.000000e+00
8.736623e-02 -1.748041e-13 0.000000e+00
7.998689e-02 -1.286474e-13 0.000000e+00
6.590764e-02 -9.313901e-14 0.000000e+00
4.944067e-02 -3.089946e-14 0.000000e+00
0.000000e+00 -1.092780e-13 0.000000e+00
0.000000e+00 -1.495987e-13 0.000000e+00
2.724046e-02 -2.409640e-14 0.000000e+00
4.666247e-02 -6.582157e-14 0.000000e+00
6.235542e-02 -4.311707e-14 0.000000e+00
7.550627e-02 -6.138859e-14 0.000000e+00
8.716387e-02 -9.055654e-14 0.000000e+00
9.741485e-02 -8.944805e-14 0.000000e+00
1.064267e-01 -1.307930e-13 0.000000e+00
1.140999e-01 -2.568413e-14 0.000000e+00
1.205231e-01 -1.320254e-13 0.000000e+00
1.258220e-01 -6.362250e-15 0.000000e+00
1.302786e-01 -3.459149e-14 0.000000e+00
1.341826e-01 -2.889311e-14 0.000000e+00
1.378479e-01 1.073052e-14 0.000000e+00
1.414101e-01 3.534468e-14 0.000000e+00
1.447765e-01 -4.199060e-14 0.000000e+00
1.477177e-01 9.981016e-14 0.000000e+00
1.499688e-01 2.841625e-14 0.000000e+00
1.512722e-01 9.274352e-14 0.000000e+00
1.514524e-01 1.017107e-13 0.000000e+00
1.504093e-01 2.402758e-14 0.000000e+00
1.481341e-01 -2.450810e-14 0.000000e+00
1.446805e-01 -1.313298e-13 0.000000e+00
1.402341e-01 -9.733743e-14 0.000000e+00
1.350475e-01 -2.378232e-13 0.000000e+00
1.295386e-01 -1.565479e-13 0.000000e+00
1.240957e-01 -1.550087e-13 0.000000e+00
1.191880e-01 -6.787386e-14 0.000000e+00
1.150773e-01 -7.436930e-14 0.000000e+00
1.119114e-01 -3.628807e-14 0.000000e+00
1.094644e-01 -1.134337e-13 0.000000e+00
1.074296e-01 -1.187541e-13 0.000000e+00
1.053154e-01 -2.060427e-13 0.000000e+00
1.025626e-01 -1.922366e-13 0.000000e+00
9.885865e-02 -2.177192e-13 0.000000e+00
9.405888e-02 -2.256979e-13 0.000000e+00
8.736623e-02 -2.199407e-13 0.000000e+00
7.998689e-02 -2.395502e-13 0.000000e+00
6.590764e-02 -9.375495e-14 0.000000e+00
4.944067e-02 -1.300786e-13 0.000000e+00
0.000000e+00 -1.835614e-13 0.000000e+00
0.000000e+00 -3.461508e-14 0.000000e+00
2.724046e-02 -1.495715e-14 0.000000e+00
4.666247e-02 -3.580206e-14 0.000000e+00
6.235542e-02 -4.296366e-14 0.000000e+00
7.550627e-02 -4.593079e-14 0.000000e+00
8.716387e-02 -3.560110e-14 0.000000e+00
9.741485e-02 -1.355554e-14 0.000000e+00
1.064267e-01 -7.133666e-14 0.000000e+00
1.140999e-01 5.316890e-14 0.000000e+00
1.205231e-01 -1.032383e-13 0.000000e+00
1.258220e-01 2.787003e-14 0.000000e+00
1.302786e-01 -2.053726e-14 0.000000e+00
1.341826e-01 -1.826950e-14 0.000000e+00
1.378479e-01 1.595976e-14 0.000000e+00
1.414101e-01 5.092973e-14 0.000000e+00
1.447765e-01 -4.102424e-14 0.000000e+00
1.477177e-01 1.030483e-13 0.000000e+00
1.499688e-01 1.809584e-14 0.000000e+00
1.512722e-01 8.130408e-14 0.000000e+00
1.514524e-01 9.845292e-14 0.000000e+00
1.504093e-01 2.959145e-14 0.000000e+00
1.481341e-01 5.157200e-15 0.000000e+00
1.446805e-01 -7.683293e-14 0.000000e+00
1.402341e-01 7.461602e-15 0.000000e+00
1.350475e-01 -1.097674e-13 0.000000e+00
1.295386e-01 -2.024248e-14 0.000000e+00
1.240957e-01 -4.227549e-14 0.000000e+00
1.191880e-01 5.505703e-15 0.000000e+00
1.150773e-01 -2.331572e-14 0.000000e+00
1.119114e-01 3.142686e-14 0.000000e+00
1.094644e-01 -5.966780e-15 0.000000e+00
1.074296e-01 6.528218e-15 0.000000e+00
1.053154e-01 -1.191007e-13 0.000000e+00
1.025626e-01 -1.506493e-13 0.000000e+00
9.885865e-02 -2.234427e-13 0.000000e+00
9.405888e-02 -2.011756e-13 0.000000e+00
8.736623e-02 -2.188129e-13 0.000000e+00
7.998689e-02 -2.014527e-13 0.000000e+00
6.590764e-02 -1.394328e-13 0.000000e+00
4.944067e-02 -1.020544e-13 0.000000e+00
0.000000e+00 -1.814567e-13 0.000000e+00
0.000000e+00 1.899722e-14 0.000000e+00
2.724046e-02 -3.540121e-14 0.000000e+00
4.666247e-02 -1.832271e-15 0.000000e+00
6.235542e-02 -1.162437e-14 0.000000e+00
7.550627e-02 5.477404e-15 0.000000e+00
8.716387e-02 1.882168e-14 0.000000e+00
9.741485e-02 5.988597e-14 0.000000e+00
1.064267e-01 1.075488e-14 0.000000e+00
1.140999e-01 1.117540e-13 0.000000e+00
1.205231e-01 -2.870168e-14 0.000000e+00
1.258220e-01 6.636644e-14 0.000000e+00
1.302786e-01 1.232836e-14 0.000000e+00
1.341826e-01 3.527908e-15 0.000000e+00
1.378479e-01 3.332531e-14 0.000000e+00
1.414101e-01 4.547410e-14 0.000000e+00
1.447765e-01 -3.833605e-14 0.000000e+00
1.477177e-01 8.818538e-14 0.000000e+00
1.499688e-01 4.573030e-15 0.000000e+00
1.512722e-01 5.022366e-14 0.000000e+00
1.514524e-01 6.822832e-14 0.000000e+00
1.504093e-01 6.588126e-15 0.000000e+00
1.481341e-01 -4.837133e-15 0.000000e+00
1.446805e-01 -9.365632e-14 0.000000e+00
1.402341e-01 -1.082181e-14 0.000000e+00
1.350475e-01 -1.190821e-13 0.000000e+00
1.295386e-01 -4.115544e-14 0.000000e+00
1.240957e-01 -5.797265e-14 0.000000e+00
1.191880e-01 -1.816138e-14 0.000000e+00
1.150773e-01 -3.759543e-14 0.000000e+00
1.119114e-01 -4.883789e-15 0.000000e+00
1.094644e-01 -4.596082e-14 0.000000e+00
1.074296e-01 -2.945080e-14 0.000000e+00
1.053154e-01 -1.193613e-13 0.000000e+00
1.025626e-01 -1.164619e-13 0.000000e+00
9.885865e-02 -1.747146e-13 0.000000e+00
9.405888e-02 -1.734553e-13 0.000000e+00
8.736623e-02 -1.751500e-13 0.000000e+00
7.998689e-02 -1.716793e-13 0.000000e+00
6.590764e-02 -9.870345e-14 0.000000e+00
4.944067e-02 -9.970703e-14 0.000000e+00
0.000000e+00 -1.571375e-13 0.000000e+00
0.000000e+00 -7.273451e-14 0.000000e+00
2.724046e-02 -1.933756e-14 0.000000e+00
4.666247e-02 -1.866672e-14 0.000000e+00
6.235542e-02 -3.742830e-15 0.000000e+00
7.550627e-02 -1.916996e-15 0.000000e+00
8.716387e-02 2.759214e-14 0.000000e+00
9.741485e-02 4.802615e-14 0.000000e+00
1.064267e-01 2.826831e-14 0.000000e+00
1.140999e-01 8.216688e-14 0.000000e+00
1.205231e-01 -1.343742e-15 0.000000e+00
1.258220e-01 5.563566e-14 0.000000e+00
1.302786e-01 5.179654e-15 0.000000e+00
1.341826e-01 1.421820e-14 0.000000e+00
1.378479e-01 6.484567e-15 0.000000e+00
1.414101e-01 2.184921e-14 0.000000e+00
1.447765e-01 -3.418884e-14 0.000000e+00
1.477177e-01 3.730703e-14 0.000000e+00
1.499688e-01 -1.222775e-14 0.000000e+00
1.512722e-01 1.639743e-14 0.000000e+00
1.514524e-01 1.899843e-14 0.000000e+00
1.504093e-01 -1.974402e-14 0.000000e+00
1.481341e-01 -3.434985e-14 0.000000e+00
1.446805e-01 -1.086064e-13 0.000000e+00
1.402341e-01 -7.143653e-14 0.000000e+00
1.350475e-01 -1.568781e-13 0.000000e+00
1.295386e-01 -9.173218e-14 0.000000e+00
1.240957e-01 -1.116293e-13 0.000000e+00
1.191880e-01 -4.855540e-14 0.000000e+00
1.150773e-01 -6.585224e-14 0.000000e+00
1.119114e-01 -5.013065e-14 0.000000e+00
1.094644e-01 -1.078960e-13 0.000000e+00
1.074296e-01 -9.151871e-14 0.000000e+00
1.053154e-01 -1.320828e-13 0.000000e+00
1.025626e-01 -7.021787e-14 0.000000e+00
9.885865e-02 -1.191914e-13 0.000000e+00
9.405888e-02 -8.863194e-14 0.000000e+00
8.736623e-02 -1.400482e-13 0.000000e+00
7.998689e-02 -7.559330e-14 0.000000e+00
6.590764e-02 -9.820278e-14 0.000000e+00
4.944067e-02 5.516745e-16 0.000000e+00
0.000000e+00 -7.612113e-14 0.000000e+00
0.000000e+00 0.000000e+00 0.000000e+00
2.724046e-02 0.000000e+00 0.000000e+00
4.666247e-02 0.000000e+00 0.000000e+00
6.235542e-02 0.000000e+00 0.000000e+00
7.550627e-02 0.000000e+00 0.000000e+00
8.716387e-02 0.000000e+00 0.000000e+00
9.741485e-02 0.000000e+00 0.000000e+00
1.064267e-01 0.000000e+00 0.000000e+00
1.140999e-01 0.000000e+00 0.000000e+00
1.205231e-01 0.000000e+00 0.000000e+00
1.258220e-01 0.000000e+00 0.000000e+00
1.302786e-01 0.000000e+00 0.000000e+00
1.341826e-01 0.000000e+00 0.000000e+00
1.378479e-01 0.000000e+00 0.000000e+00
1.414101e-01 0.000000e+00 0.000000e+00
1.447765e-01 0.000000e+00 0.000000e+00
1.477177e-01 0.000000e+00 0.000000e+00
1.499688e-01 0.000000e+00 0.000000e+00
1.512722e-01 0.000000e+00 0.000000e+00
1.514524e-01 0.000000e+00 0.000000e+00
1.504093e-01 0.000000e+00 0.000000e+00
1.481341e-01 0.000000e+00 0.000000e+00
1.446805e-01 0.000000e+00 0.000000e+00
1.402341e-01 0.000000e+00 0.000000e+00
1.350475e-01 0.000000e+00 0.000000e+00
1.295386e-01 0.000000e+00 0.000000e+00
1.240957e-01 0.000000e+00 0.000000e+00
1.191880e-01 0.000000e+00 0.000000e+00
1.150773e-01 0.000000e+00 0.000000e+00
1.119114e-01 0.000000e+00 0.000000e+00
1.094644e-01 0.000000e+00 0.000000e+00
1.074296e-01 0.000000e+00 0.000000e+00
1.053154e-01 0.000000e+00 0.000000e+00
1.025626e-01 0.000000e+00 0.000000e+00
9.885865e-02 0.000000e+00 0.000000e+00
9.405888e-02 0.000000e+00 0.000000e+00
8.736623e-02 0.000000e+00 0.000000e+00
7.998689e-02 0.000000e+00 0.000000e+00
6.590764e-02 0.000000e+00 0.000000e+00
4.944067e-02 0.000000e+00 0.000000e+00
0.000000e+00 0.000000e+00 0.000000e+00
0.000000e+00 0.000000e+00 -2.543969e-02
1.126492e-02 0.000000e+00 -2.215656e-02
2.405521e-02 0.000000e+00 -1.791305e-02
3.609284e-02 0.000000e+00 -1.587113e-02
4.739251e-02 0.000000e+00 -1.425426e-02
5.771929e-02 0.000000e+00 -1.300117e-02
6.682733e-02 0.000000e+00 -1.165080e-02
7.438667e-02 0.000000e+00 -1.026304e-02
8.033673e-02 0.000000e+00 -8.860264e-03
8.481626e-02 0.000000e+00 -7.608986e-03
8.807873e-02 0.000000e+00 -6.580789e-03
9.038810e-02 0.000000e+00 -5.837964e-03
9.198290e-02 0.000000e+00 -5.371631e-03
9.304556e-02 0.000000e+00 -5.139388e-03
9.380745e-02 0.000000e+00 -5.004905e-03
9.449145e-02 0.000000e+00 -4.783179e-03
9.502541e-02 0.000000e+00 -4.320021e-03
9.513141e-02 0.000000e+00 -3.572850e-03
9.450833e-02 0.000000e+00 -2.581519e-03
9.291316e-02 0.000000e+00 -1.441246e-03
9.026985e-02 0.000000e+00 -2.726523e-04
8.667813e-02 0.000000e+00 8.259084e-04
8.235387e-02 0.000000e+00 1.766027e-03
7.753237e-02 0.000000e+00 2.476854e-03
7.249123e-02 0.000000e+00 2.867188e-03
6.749324e-02 0.000000e+00 2.884491e-03
6.285105e-02 0.000000e+00 2.519486e-03
5.876248e-02 0.000000e+00 1.830783e-03
5.542310e-02 0.000000e+00 9.549343e-04
5.290621e-02 0.000000e+00 6.363583e-05
5.129928e-02 0.000000e+00 -5.911161e-04
5.030422e-02 0.000000e+00 -8.952496e-04
4.960990e-02 0.000000e+00 -6.375523e-04
4.851345e-02 0.000000e+00 1.486326e-04
4.669278e-02 0.000000e+00 1.026757e-03
4.357925e-02 0.000000e+00 2.820251e-03
3.922314e-02 0.000000e+00 3.259040e-03
3.346800e-02 0.000000e+00 7.499758e-03
2.570723e-02 0.000000e+00 8.231489e-03
1.622892e-02 0.000000e+00 2.298902e-02
0.000000e+00 0.000000e+00 4.231558e-02
0.000000e+00 -1.403495e-15 -2.543969e-02
1.126492e-02 9.700897e-15 -2.215656e-02
2.405521e-02 5.937011e-14 -1.791305e-02
3.609284e-02 1.111134e-13 -1.587113e-02
4.739251e-02 1.134693e-13 -1.425426e-02
5.771929e-02 2.048517e-13 -1.300117e-02
6.682733e-02 2.203090e-13 -1.165080e-02
7.438667e-02 2.401519e-13 -1.026304e-02
8.033673e-02 2.433139e-13 -8.860264e-03
8.481626e-02 2.149050e-13 -7.608986e-03
8.807873e-02 1.939218e-13 -6.580789e-03
9.038810e-02 1.466752e-13 -5.837964e-03
9.198290e-02 1.628805e-13 -5.371631e-03
9.304556e-02 1.008925e-13 -5.139388e-03
9.380745e-02 7.901961e-14 -5.004905e-03
9.449145e-02 6.948059e-14 -4.783179e-03
9.502541e-02 -3.599543e-14 -4.320021e-03
9.513141e-02 -5.546828e-14 -3.572850e-03
9.450833e-02 -1.266026e-13 -2.581519e-03
9.291316e-02 -1.667117e-13 -1.441246e-03
9.026985e-02 -6.076658e-14 -2.726523e-04
8.667813e-02 -7.199513e-14 8.259084e-04
8.235387e-02 3.889205e-15 1.766027e-03
7.753237e-02 -1.329991e-13 2.476854e-03
7.249123e-02 -1.586840e-13 2.867188e-03
6.749324e-02 -3.107829e-13 2.884491e-03
6.285105e-02 -5.857626e-13 2.519486e-03
5.876248e-02 -6.896665e-13 1.830783e-03
5.542310e-02 -7.619969e-13 9.549343e-04
5.290621e-02 -6.047623e-13 6.363583e-05
5.129928e-02 -2.404197e-13 -5.911161e-04
5.030422e-02 2.553108e-13 -8.952496e-04
4.960990e-02 5.641740e-13 -6.375523e-04
4.851345e-02 6.356539e-13 1.486326e-04
4.669278e-02 2.708112e-13 1.026757e-03
4.357925e-02 1.665431e-13 2.820251e-03
3.922314e-02 -8.859101e-14 3.259040e-03
3.346800e-02 1.323440e-14 7.499758e-03
2.570723e-02 -2.248759e-13 8.231489e-03
1.622892e-02 7.607553e-14 2.298902e-02
0.000000e+00 -1.856190e-13 4.231558e-02
0.000000e+00 -1.138573e-14 -2.543969e-02
1.126492e-02 9.360898e-15 -2.215656e-02
2.405521e-02 3.362100e-14 -1.791305e-02
3.609284e-02 1.350351e-13 -1.587113e-02
4.739251e-02 1.440649e-13 -1.425426e-02
5.771929e-02 3.000295e-13 -1.300117e-02
6.682733e-02 3.055191e-13 -1.165080e-02
7.438667e-02 3.333139e-13 -1.026304e-02
8.033673e-02 3.536942e-13 -8.860264e-03
8.481626e-02 2.995641e-13 -7.608986e-03
8.807873e-02 2.843401e-13 -6.580789e-03
9.038810e-02 1.920710e-13 -5.837964e-03
9.198290e-02 2.352404e-13 -5.371631e-03
9.304556e-02 1.160276e-13 -5.139388e-03
9.380745e-02 1.134219e-13 -5.004905e-03
9.449145e-02 1.066771e-13 -4.783179e-03
9.502541e-02 -3.205463e-14 -4.320021e-03
9.513141e-02 -4.991324e-14 -3.572850e-03
9.450833e-02 -1.201801e-13 -2.581519e-03
9.291316e-02 -1.923602e-13 -1.441246e-03
9.026985e-02 -3.878159e-15 -2.726523e-04
8.667813e-02 -6.361630e-14 8.259084e-04
8.235387e-02 1.059699e-13 1.766027e-03
7.753237e-02 -1.013457e-13 2.476854e-03
7.249123e-02 -3.708422e-14 2.867188e-03
6.749324e-02 -1.682090e-13 2.884491e-03
6.285105e-02 -4.104166e-13 2.519486e-03
5.876248e-02 -5.200934e-13 1.830783e-03
5.542310e-02 -6.669459e-13 9.549343e-04
5.290621e-02 -6.685818e-13 6.363583e-05
5.129928e-02 -5.046843e-13 -5.911161e-04
5.030422e-02 -1.341054e-13 -8.952496e-04
4.960990e-02 1.396886e-13 -6.375523e-04
4.851345e-02 4.171281e-13 1.486326e-04
4.669278e-02 2.157394e-13 1.026757e-03
4.357925e-02 1.615559e-13 2.820251e-03
3.922314e-02 -7.451881e-14 3.259040e-03
3.346800e-02 -1.217934e-14 7.499758e-03
2.570723e-02 -2.149181e-13 8.231489e-03
1.622892e-02 8.449738e-14 2.298902e-02
0.000000e+00 -2.579028e-13 4.231558e-02
0.000000e+00 1.530902e-14 -2.543969e-02
1.126492e-02 2.388630e-14 -2.215656e-02
2.405521e-02 3.567145e-14 -1.791305e-02
3.609284e-02 9.642540e-14 -1.587113e-02
4.739251e-02 1.130994e-13 -1.425426e-02
5.771929e-02 2.488717e-13 -1.300117e-02
6.682733e-02 2.212125e-13 -1.165080e-02
7.438667e-02 2.446848e-13 -1.026304e-02
8.033673e-02 2.598966e-13 -8.860264e-03
8.481626e-02 2.252685e-13 -7.608986e-03
8.807873e-02 2.173122e-13 -6.580789e-03
9.038810e-02 1.513137e-13 -5.837964e-03
9.198290e-02 1.978178e-13 -5.371631e-03
9.304556e-02 9.400260e-14 -5.139388e-03
9.380745e-02 1.052165e-13 -5.004905e-03
9.449145e-02 1.274241e-13 -4.783179e-03
9.502541e-02 -2.667986e-15 -4.320021e-03
9.513141e-02 -2.156981e-15 -3.572850e-03
9.450833e-02 -6.618026e-14 -2.581519e-03
9.291316e-02 -1.435465e-13 -1.441246e-03
9.026985e-02 5.598860e-14 -2.726523e-04
8.667813e-02 -2.604790e-15 8.259084e-04
8.235387e-02 1.993865e-13 1.766027e-03
7.753237e-02 2.246757e-15 2.476854e-03
7.249123e-02 1.309172e-13 2.867188e-03
6.749324e-02 1.226801e-13 2.884491e-03
6.285105e-02 -3.977577e-14 2.519486e-03
5.876248e-02 -3.068530e-14 1.830783e-03
5.542310e-02 -2.399701e-13 9.549343e-04
5.290621e-02 -3.862749e-13 6.363583e-05
5.129928e-02 -6.121777e-13 -5.911161e-04
5.030422e-02 -5.910231e-13 -8.952496e-04
4.960990e-02 -4.834181e-13 -6.375523e-04
4.851345e-02 -7.330455e-14 1.486326e-04
4.669278e-02 -2.947047e-14 1.026757e-03
4.357925e-02 1.035147e-13 2.820251e-03
3.922314e-02 -1.197447e-13 3.259040e-03
3.346800e-02 1.736214e-14 7.499758e-03
2.570723e-02 -2.392401e-13 8.231489e-03
1.622892e-02 1.368221e-13 2.298902e-02
0.000000e+00 -2.975679e-13 4.231558e-02
0.000000e+00 -1.620108e-14 -2.543969e-02
1.126492e-02 3.366994e-15 -2.215656e-02
2.405521e-02 2.638056e-14 -1.791305e-02
3.609284e-02 5.254931e-14 -1.587113e-02
4.739251e-02 5.175945e-14 -1.425426e-02
5.771929e-02 1.261926e-13 -1.300117e-02
6.682733e-02 6.698832e-14 -1.165080e-02
7.438667e-02 8.539339e-14 -1.026304e-02
8.033673e-02 1.123342e-13 -8.860264e-03
8.481626e-02 1.037004e-13 -7.608986e-03
8.807873e-02 1.129521e-13 -6.580789e-03
9.038810e-02 7.657085e-14 -5.837964e-03
9.198290e-02 1.381187e-13 -5.371631e-03
9.304556e-02 5.199610e-14 -5.139388e-03
9.380745e-02 7.948137e-14 -5.004905e-03
9.449145e-02 1.038293e-13 -4.783179e-03
9.502541e-02 -5.021971e-15 -4.320021e-03
9.513141e-02 6.782318e-15 -3.572850e-03
9.450833e-02 -4.210349e-14 -2.581519e-03
9.291316e-02 -1.341259e-13 -1.441246e-03
9.026985e-02 2.407292e-14 -2.726523e-04
8.667813e-02 -5.049488e-14 8.259084e-04
8.235387e-02 1.682179e-13 1.766027e-03
7.753237e-02 -2.486919e-14 2.476854e-03
7.249123e-02 9.398251e-14 2.867188e-03
6.749324e-02 4.323070e-14 2.884491e-03
6.285105e-02 -1.142817e-13 2.519486e-03
5.876248e-02 -1.416803e-13 1.830783e-03
5.542310e-02 -2.804605e-13 9.549343e-04
5.290621e-02 -3.961299e-13 6.363583e-05
5.129928e-02 -4.731041e-13 -5.911161e-04
5.030422e-02 -3.993587e-13 -8.952496e-04
4.960990e-02 -2.992486e-13 -6.375523e-04
4.851345e-02 -1.963857e-14 1.486326e-04
4.669278e-02 -3.427113e-14 1.026757e-03
4.357925e-02 8.104940e-14 2.820251e-03
3.922314e-02 -8.568056e-14 3.259040e-03
3.346800e-02 1.753923e-14 7.499758e-03
2.570723e-02 -1.602530e-13 8.231489e-03
1.622892e-02 1.043440e-13 2.298902e-02
0.000000e+00 -2.028723e-13 4.231558e-02
0.000000e+00 -2.448507e-14 -2.543969e-02
1.126492e-02 -2.577141e-14 -2.215656e-02
2.405521e-02 -1.577649e-14 -1.791305e-02
3.609284e-02 1.126375e-14 -1.587113e-02
4.739251e-02 -3.978051e-15 -1.425426e-02
5.771929e-02 4.185228e-14 -1.300117e-02
6.682733e-02 -6.252464e-15 -1.165080e-02
7.438667e-02 1.151477e-14 -1.026304e-02
8.033673e-02 3.252214e-14 -8.860264e-03
8.481626e-02 3.771429e-14 -7.608986e-03