# vtk DataFile Version 3.0
vtk output
ASCII
DATASET UNSTRUCTURED_GRID
POINTS 11767 float
0.000000e+00 0.000000e+00 0.000000e+00
1.460000e-02 0.000000e+00 0.000000e+00
2.920000e-02 0.000000e+00 0.000000e+00
4.380000e-02 0.000000e+00 0.000000e+00
5.840000e-02 0.000000e+00 0.000000e+00
7.300000e-02 0.000000e+00 0.000000e+00
8.760000e-02 0.000000e+00 0.000000e+00
1.022000e-01 0.000000e+00 0.000000e+00
1.168000e-01 0.000000e+00 0.000000e+00
1.314000e-01 0.000000e+00 0.000000e+00
1.460000e-01 0.000000e+00 0.000000e+00
1.606000e-01 0.000000e+00 0.000000e+00
1.752000e-01 0.000000e+00 0.000000e+00
1.898000e-01 0.000000e+00 0.000000e+00
2.044000e-01 0.000000e+00 0.000000e+00
2.190000e-01 0.000000e+00 0.000000e+00
2.336000e-01 0.000000e+00 0.000000e+00
2.482000e-01 0.000000e+00 0.000000e+00
2.628000e-01 0.000000e+00 0.000000e+00
2.774000e-01 0.000000e+00 0.000000e+00
2.920000e-01 0.000000e+00 0.000000e+00
3.066000e-01 0.000000e+00 0.000000e+00
3.212000e-01 0.000000e+00 0.000000e+00
3.358000e-01 0.000000e+00 0.000000e+00
3.504000e-01 0.000000e+00 0.000000e+00
3.650000e-01 0.000000e+00 0.000000e+00
3.796000e-01 0.000000e+00 0.000000e+00
3.942000e-01 0.000000e+00 0.000000e+00
4.088000e-01 0.000000e+00 0.000000e+00
4.234000e-01 0.000000e+00 0.000000e+00
4.380000e-01 0.000000e+00 0.000000e+00
4.526000e-01 0.000000e+00 0.000000e+00
4.672000e-01 0.000000e+00 0.000000e+00
4.818000e-01 0.000000e+00 0.000000e+00
4.964000e-01 0.000000e+00 0.000000e+00
5.110000e-01 0.000000e+00 0.000000e+00
5.256000e-01 0.000000e+00 0.000000e+00
5.402000e-01 0.000000e+00 0.000000e+00
5.548000e-01 0.000000e+00 0.000000e+00
5.694000e-01 0.000000e+00 0.000000e+00
5.840000e-01 0.000000e+00 0.000000e+00
0.000000e+00 1.460000e-02 0.000000e+00
1.460000e-02 1.460000e-02 0.000000e+00
2.920000e-02 1.460000e-02 0.000000e+00
4.380000e-02 1.460000e-02 0.000000e+00
5.840000e-02 1.460000e-02 0.000000e+00
7.300000e-02 1.460000e-02 0.000000e+00
8.760000e-02 1.460000e-02 0.000000e+00
1.022000e-01 1.460000e-02 0.000000e+00
1.168000e-01 1.460000e-02 0.000000e+00
1.314000e-01 1.460000e-02 0.000000e+00
1.460000e-01 1.460000e-02 0.000000e+00
1.606000e-01 1.460000e-02 0.000000e+00
1.752000e-01 1.460000e-02 0.000000e+00
1.898000e-01 1.460000e-02 0.000000e+00
2.044000e-01 1.460000e-02 0.000000e+00
2.190000e-01 1.460000e-02 0.000000e+00
2.336000e-01 1.460000e-02 0.000000e+00
2.482000e-01 1.460000e-02 0.000000e+00
2.628000e-01 1.460000e-02 0.000000e+00
2.774000e-01 1.460000e-02 0.000000e+00
2.920000e-01 1.460000e-02 0.000000e+00
3.066000e-01 1.460000e-02 0.000000e+00
3.212000e-01 1.460000e-02 0.000000e+00
3.358000e-01 1.460000e-02 0.000000e+00
3.504000e-01 1.460000e-02 0.000000e+00
3.650000e-01 1.460000e-02 0.000000e+00
3.796000e-01 1.460000e-02 0.000000e+00
3.942000e-01 1.460000e-02 0.000000e+00
4.088000e-01 1.460000e-02 0.000000e+00
4.234000e-01 1.460000e-02 0.000000e+00
4.380000e-01 1.460000e-02 0.000000e+00
4.526000e-01 1.460000e-02 0.000000e+00
4.672000e-01 1.460000e-02 0.000000e+00
4.818000e-01 1.460000e-02 0.000000e+00
4.964000e-01 1.460000e-02 0.000000e+00
5.110000e-01 1.460000e-02 0.000000e+00
5.256000e-01 1.460000e-02 0.000000e+00
5.402000e-01 1.460000e-02 0.000000e+00
5.548000e-01 1.460000e-02 0.000000e+00
5.694000e-01 1.460000e-02 0.000000e+00
5.840000e-01 1.460000e-02 0.000000e+00
0.000000e+00 2.920000e-02 0.000000e+00
1.460000e-02 2.920000e-02 0.000000e+00
2.920000e-02 2.920000e-02 0.000000e+00
4.380000e-02 2.920000e-02 0.000000e+00
5.840000e-02 2.920000e-02 0.000000e+00
7.300000e-02 2.920000e-02 0.000000e+00
8.760000e-02 2.920000e-02 0.000000e+00
1.022000e-01 2.920000e-02 0.000000e+00
1.168000e-01 2.920000e-02 0.000000e+00
1.314000e-01 2.920000e-02 0.000000e+00
1.460000e-01 2.920000e-02 0.000000e+00
1.606000e-01 2.920000e-02 0.000000e+00
1.752000e-01 2.920000e-02 0.000000e+00
1.898000e-01 2.920000e-02 0.000000e+00
2.044000e-01 2.920000e-02 0.000000e+00
2.190000e-01 2.920000e-02 0.000000e+00
2.336000e-01 2.920000e-02 0.000000e+00
2.482000e-01 2.920000e-02 0.000000e+00
2.628000e-01 2.920000e-02 0.000000e+00
2.774000e-01 2.920000e-02 0.000000e+00
2.920000e-01 2.920000e-02 0.000000e+00
3.066000e-01 2.920000e-02 0.000000e+00
3.212000e-01 2.920000e-02 0.000000e+00
3.358000e-01 2.920000e-02 0.000000e+00
3.504000e-01 2.920000e-02 0.000000e+00
3.650000e-01 2.920000e-02 0.000000e+00
3.796000e-01 2.920000e-02 0.000000e+00
3.942000e-01 2.920000e-02 0.000000e+00
4.088000e-01 2.920000e-02 0.000000e+00
4.234000e-01 2.920000e-02 0.000000e+00
4.380000e-01 2.920000e-02 0.000000e+00
4.526000e-01 2.920000e-02 0.000000e+00
4.672000e-01 2.920000e-02 0.000000e+00
4.818000e-01 2.920000e-02 0.000000e+00
4.964000e-01 2.920000e-02 0.000000e+00
5.110000e-01 2.920000e-02 0.000000e+00
5.256000e-01 2.920000e-02 0.000000e+00
5.402000e-01 2.920000e-02 0.000000e+00
5.548000e-01 2.920000e-02 0.000000e+00
5.694000e-01 2.920000e-02 0.000000e+00
5.840000e-01 2.920000e-02 0.000000e+00
0.000000e+00 4.380000e-02 0.000000e+00
1.460000e-02 4.380000e-02 0.000000e+00
2.920000e-02 4.380000e-02 0.000000e+00
4.380000e-02 4.380000e-02 0.000000e+00
5.840000e-02 4.380000e-02 0.000000e+00
7.300000e-02 4.380000e-02 0.000000e+00
8.760000e-02 4.380000e-02 0.000000e+00
1.022000e-01 4.380000e-02 0.000000e+00
1.168000e-01 4.380000e-02 0.000000e+00
1.314000e-01 4.380000e-02 0.000000e+00
1.460000e-01 4.380000e-02 0.000000e+00
1.606000e-01 4.380000e-02 0.000000e+00
1.752000e-01 4.380000e-02 0.000000e+00
1.898000e-01 4.380000e-02 0.000000e+00
2.044000e-01 4.380000e-02 0.000000e+00
2.190000e-01 4.380000e-02 0.000000e+00
2.336000e-01 4.380000e-02 0.000000e+00
2.482000e-01 4.380000e-02 0.000000e+00
2.628000e-01 4.380000e-02 0.000000e+00
2.774000e-01 4.380000e-02 0.000000e+00
2.920000e-01 4.380000e-02 0.000000e+00
3.066000e-01 4.380000e-02 0.000000e+00
3.212000e-01 4.380000e-02 0.000000e+00
3.358000e-01 4.380000e-02 0.000000e+00
3.504000e-01 4.380000e-02 0.000000e+00
3.650000e-01 4.380000e-02 0.000000e+00
3.796000e-01 4.380000e-02 0.000000e+00
3.942000e-01 4.380000e-02 0.000000e+00
4.088000e-01 4.380000e-02 0.000000e+00
4.234000e-01 4.380000e-02 0.000000e+00
4.380000e-01 4.380000e-02 0.000000e+00
4.526000e-01 4.380000e-02 0.000000e+00
4.672000e-01 4.380000e-02 0.000000e+00
4.818000e-01 4.380000e-02 0.000000e+00
4.964000e-01 4.380000e-02 0.000000e+00
5.110000e-01 4.380000e-02 0.000000e+00
5.256000e-01 4.380000e-02 0.000000e+00
5.402000e-01 4.380000e-02 0.000000e+00
5.548000e-01 4.380000e-02 0.000000e+00
5.694000e-01 4.380000e-02 0.000000e+00
5.840000e-01 4.380000e-02 0.000000e+00
0.000000e+00 5.840000e-02 0.000000e+00
1.460000e-02 5.840000e-02 0.000000e+00
2.920000e-02 5.840000e-02 0.000000e+00
4.380000e-02 5.840000e-02 0.000000e+00
5.840000e-02 5.840000e-02 0.000000e+00
7.300000e-02 5.840000e-02 0.000000e+00
8.760000e-02 5.840000e-02 0.000000e+00
1.022000e-01 5.840000e-02 0.000000e+00
1.168000e-01 5.840000e-02 0.000000e+00
1.314000e-01 5.840000e-02 0.000000e+00
1.460000e-01 5.840000e-02 0.000000e+00
1.606000e-01 5.840000e-02 0.000000e+00
1.752000e-01 5.840000e-02 0.000000e+00
1.898000e-01 5.840000e-02 0.000000e+00
2.044000e-01 5.840000e-02 0.000000e+00
2.190000e-01 5.840000e-02 0.000000e+00
2.336000e-01 5.840000e-02 0.000000e+00
2.482000e-01 5.840000e-02 0.000000e+00
2.628000e-01 5.840000e-02 0.000000e+00
2.774000e-01 5.840000e-02 0.000000e+00
2.920000e-01 5.840000e-02 0.000000e+00
3.066000e-01 5.840000e-02 0.000000e+00
3.212000e-01 5.840000e-02 0.000000e+00
3.358000e-01 5.840000e-02 0.000000e+00
3.504000e-01 5.840000e-02 0.000000e+00
3.650000e-01 5.840000e-02 0.000000e+00
3.796000e-01 5.840000e-02 0.000000e+00
3.942000e-01 5.840000e-02 0.000000e+00
4.088000e-01 5.840000e-02 0.000000e+00
4.234000e-01 5.840000e-02 0.000000e+00
4.380000e-01 5.840000e-02 0.000000e+00
4.526000e-01 5.840000e-02 0.000000e+00
4.672000e-01 5.840000e-02 0.000000e+00
4.818000e-01 5.840000e-02 0.000000e+00
4.964000e-01 5.840000e-02 0.000000e+00
5.110000e-01 5.840000e-02 0.000000e+00
5.256000e-01 5.840000e-02 0.000000e+00
5.402000e-01 5.840000e-02 0.000000e+00
5.548000e-01 5.840000e-02 0.000000e+00
5.694000e-01 5.840000e-02 0.000000e+00
5.840000e-01 5.840000e-02 0.000000e+00
0.000000e+00 7.300000e-02 0.000000e+00
1.460000e-02 7.300000e-02 0.000000e+00
2.920000e-02 7.300000e-02 0.000000e+00
4.380000e-02 7.300000e-02 0.000000e+00
5.840000e-02 7.300000e-02 0.000000e+00
7.300000e-02 7.300000e-02 0.000000e+00
8.760000e-02 7.300000e-02 0.000000e+00
1.022000e-01 7.300000e-02 0.000000e+00
1.168000e-01 7.300000e-02 0.000000e+00
1.314000e-01 7.300000e-02 0.000000e+00
1.460000e-01 7.300000e-02 0.000000e+00
1.606000e-01 7.300000e-02 0.000000e+00
1.752000e-01 7.300000e-02 0.000000e+00
1.898000e-01 7.300000e-02 0.000000e+00
2.044000e-01 7.300000e-02 0.000000e+00
2.190000e-01 7.300000e-02 0.000000e+00
2.336000e-01 7.300000e-02 0.000000e+00
2.482000e-01 7.300000e-02 0.000000e+00
2.628000e-01 7.300000e-02 0.000000e+00
2.774000e-01 7.300000e-02 0.000000e+00
2.920000e-01 7.300000e-02 0.000000e+00
3.066000e-01 7.300000e-02 0.000000e+00
3.212000e-01 7.300000e-02 0.000000e+00
3.358000e-01 7.300000e-02 0.000000e+00
3.504000e-01 7.300000e-02 0.000000e+00
3.650000e-01 7.300000e-02 0.000000e+00
3.796000e-01 7.300000e-02 0.000000e+00
3.942000e-01 7.300000e-02 0.000000e+00
4.088000e-01 7.300000e-02 0.000000e+00
4.234000e-01 7.300000e-02 0.000000e+00
4.380000e-01 7.300000e-02 0.000000e+00
4.526000e-01 7.300000e-02 0.000000e+00
4.672000e-01 7.300000e-02 0.000000e+00
4.818000e-01 7.300000e-02 0.000000e+00
4.964000e-01 7.300000e-02 0.000000e+00
5.110000e-01 7.300000e-02 0.000000e+00
5.256000e-01 7.300000e-02 0.000000e+00
5.402000e-01 7.300000e-02 0.000000e+00
5.548000e-01 7.300000e-02 0.000000e+00
5.694000e-01 7.300000e-02 0.000000e+00
5.840000e-01 7.300000e-02 0.000000e+00
0.000000e+00 8.760000e-02 0.000000e+00
1.460000e-02 8.760000e-02 0.000000e+00
2.920000e-02 8.760000e-02 0.000000e+00
4.380000e-02 8.760000e-02 0.000000e+00
5.840000e-02 8.760000e-02 0.000000e+00
7.300000e-02 8.760000e-02 0.000000e+00
8.760000e-02 8.760000e-02 0.000000e+00
1.022000e-01 8.760000e-02 0.000000e+00
[...]
POINT_DATA 11767
VECTORS Velocity float
0.000000e+00 0.000000e+00 0.000000e+00
7.065073e-02 0.000000e+00 0.000000e+00
1.236756e-01 0.000000e+00 0.000000e+00
1.726110e-01 0.000000e+00 0.000000e+00
2.193969e-01 0.000000e+00 0.000000e+00
2.667139e-01 0.000000e+00 0.000000e+00
3.138335e-01 0.000000e+00 0.000000e+00
3.610141e-01 0.000000e+00 0.000000e+00
4.076255e-01 0.000000e+00 0.000000e+00
4.538923e-01 0.000000e+00 0.000000e+00
4.998671e-01 0.000000e+00 0.000000e+00
5.456100e-01 0.000000e+00 0.000000e+00
5.910277e-01 0.000000e+00 0.000000e+00
6.360487e-01 0.000000e+00 0.000000e+00
6.805334e-01 0.000000e+00 0.000000e+00
7.243024e-01 0.000000e+00 0.000000e+00
7.675083e-01 0.000000e+00 0.000000e+00
8.096506e-01 0.000000e+00 0.000000e+00
8.511024e-01 0.000000e+00 0.000000e+00
8.910532e-01 0.000000e+00 0.000000e+00
9.300918e-01 0.000000e+00 0.000000e+00
9.669805e-01 0.000000e+00 0.000000e+00
1.002631e+00 0.000000e+00 0.000000e+00
1.035203e+00 0.000000e+00 0.000000e+00
1.065771e+00 0.000000e+00 0.000000e+00
1.092011e+00 0.000000e+00 0.000000e+00
1.114677e+00 0.000000e+00 0.000000e+00
1.131167e+00 0.000000e+00 0.000000e+00
1.141135e+00 0.000000e+00 0.000000e+00
1.142288e+00 0.000000e+00 0.000000e+00
1.132286e+00 0.000000e+00 0.000000e+00
1.110425e+00 0.000000e+00 0.000000e+00
1.071006e+00 0.000000e+00 0.000000e+00
1.018097e+00 0.000000e+00 0.000000e+00
9.404970e-01 0.000000e+00 0.000000e+00
8.538019e-01 0.000000e+00 0.000000e+00
7.311135e-01 0.000000e+00 0.000000e+00
6.155954e-01 0.000000e+00 0.000000e+00
4.391524e-01 0.000000e+00 0.000000e+00
3.051405e-01 0.000000e+00 0.000000e+00
0.000000e+00 0.000000e+00 0.000000e+00
0.000000e+00 1.718363e-14 0.000000e+00
7.065073e-02 3.536823e-14 0.000000e+00
1.236756e-01 1.691003e-14 0.000000e+00
1.726110e-01 -1.475741e-14 0.000000e+00
2.193969e-01 2.222267e-14 0.000000e+00
2.667139e-01 -8.408086e-15 0.000000e+00
3.138335e-01 -1.456373e-14 0.000000e+00
3.610141e-01 -2.477675e-14 0.000000e+00
4.076255e-01 -2.093673e-14 0.000000e+00
4.538923e-01 7.693947e-15 0.000000e+00
4.998671e-01 -1.577589e-14 0.000000e+00
5.456100e-01 8.707602e-15 0.000000e+00
5.910277e-01 3.072622e-16 0.000000e+00
6.360487e-01 5.084526e-15 0.000000e+00
6.805334e-01 -5.653206e-15 0.000000e+00
7.243024e-01 1.250936e-14 0.000000e+00
7.675083e-01 -2.454228e-15 0.000000e+00
8.096506e-01 8.797000e-15 0.000000e+00
8.511024e-01 -1.417167e-14 0.000000e+00
8.910532e-01 1.821971e-14 0.000000e+00
9.300918e-01 7.302339e-15 0.000000e+00
9.669805e-01 -2.562855e-15 0.000000e+00
1.002631e+00 2.283229e-14 0.000000e+00
1.035203e+00 -2.095258e-14 0.000000e+00
1.065771e+00 1.662592e-14 0.000000e+00
1.092011e+00 2.212917e-15 0.000000e+00
1.114677e+00 -8.188360e-15 0.000000e+00
1.131167e+00 1.646444e-14 0.000000e+00
1.141135e+00 1.191081e-15 0.000000e+00
1.142288e+00 -7.041693e-15 0.000000e+00
1.132286e+00 -2.910475e-14 0.000000e+00
1.110425e+00 1.317302e-14 0.000000e+00
1.071006e+00 -2.665062e-15 0.000000e+00
1.018097e+00 1.501904e-14 0.000000e+00
9.404970e-01 8.168788e-15 0.000000e+00
8.538019e-01 -1.220999e-14 0.000000e+00
7.311135e-01 6.992933e-15 0.000000e+00
6.155954e-01 1.464689e-14 0.000000e+00
4.391524e-01 1.045587e-14 0.000000e+00
3.051405e-01 2.317479e-14 0.000000e+00
0.000000e+00 1.717668e-14 0.000000e+00
0.000000e+00 8.902341e-15 0.000000e+00
7.065073e-02 2.078576e-14 0.000000e+00
1.236756e-01 3.505008e-14 0.000000e+00
1.726110e-01 -8.403636e-15 0.000000e+00
2.193969e-01 -6.441928e-15 0.000000e+00
2.667139e-01 1.287641e-14 0.000000e+00
3.138335e-01 -2.905945e-14 0.000000e+00
3.610141e-01 -3.140531e-14 0.000000e+00
4.076255e-01 2.098255e-15 0.000000e+00
4.538923e-01 4.107391e-15 0.000000e+00
4.998671e-01 1.149548e-14 0.000000e+00
5.456100e-01 -1.005050e-14 0.000000e+00
5.910277e-01 6.032373e-15 0.000000e+00
6.360487e-01 -3.958555e-15 0.000000e+00
6.805334e-01 -6.535499e-15 0.000000e+00
7.243024e-01 6.506136e-15 0.000000e+00
7.675083e-01 -9.525226e-15 0.000000e+00
8.096506e-01 2.536414e-14 0.000000e+00
8.511024e-01 -1.142951e-14 0.000000e+00
8.910532e-01 -1.949344e-14 0.000000e+00
9.300918e-01 3.784522e-14 0.000000e+00
9.669805e-01 -4.735067e-15 0.000000e+00
1.002631e+00 1.324313e-14 0.000000e+00
1.035203e+00 -2.412745e-14 0.000000e+00
1.065771e+00 2.403460e-15 0.000000e+00
1.092011e+00 -1.427990e-14 0.000000e+00
1.114677e+00 -1.082110e-14 0.000000e+00
1.131167e+00 -3.939402e-15 0.000000e+00
1.141135e+00 1.025748e-14 0.000000e+00
1.142288e+00 5.695769e-15 0.000000e+00
1.132286e+00 -4.694227e-14 0.000000e+00
1.110425e+00 2.443508e-14 0.000000e+00
1.071006e+00 -3.162237e-14 0.000000e+00
1.018097e+00 2.239887e-14 0.000000e+00
9.404970e-01 -7.771868e-15 0.000000e+00
8.538019e-01 -1.187581e-14 0.000000e+00
7.311135e-01 -1.151491e-14 0.000000e+00
6.155954e-01 -1.324708e-14 0.000000e+00
4.391524e-01 2.520212e-14 0.000000e+00
3.051405e-01 -5.278763e-15 0.000000e+00
0.000000e+00 -4.369263e-14 0.000000e+00
0.000000e+00 5.101918e-14 0.000000e+00
7.065073e-02 -1.859118e-14 0.000000e+00
1.236756e-01 3.391116e-14 0.000000e+00
1.726110e-01 -3.402896e-15 0.000000e+00
2.193969e-01 6.305191e-15 0.000000e+00
2.667139e-01 8.660016e-15 0.000000e+00
3.138335e-01 -1.281814e-14 0.000000e+00
3.610141e-01 -2.988610e-14 0.000000e+00
4.076255e-01 -1.163322e-14 0.000000e+00
4.538923e-01 1.048895e-14 0.000000e+00
4.998671e-01 9.091030e-15 0.000000e+00
5.456100e-01 -1.943315e-14 0.000000e+00
5.910277e-01 1.943298e-14 0.000000e+00
6.360487e-01 2.487729e-15 0.000000e+00
6.805334e-01 1.589650e-14 0.000000e+00
7.243024e-01 -5.168176e-15 0.000000e+00
7.675083e-01 -1.203637e-14 0.000000e+00
8.096506e-01 1.584009e-14 0.000000e+00
8.511024e-01 -1.037452e-15 0.000000e+00
8.910532e-01 -3.077103e-14 0.000000e+00
9.300918e-01 3.724863e-14 0.000000e+00
9.669805e-01 4.522028e-15 0.000000e+00
1.002631e+00 -5.470568e-15 0.000000e+00
1.035203e+00 -1.730897e-14 0.000000e+00
1.065771e+00 -4.189001e-15 0.000000e+00
1.092011e+00 -2.720586e-14 0.000000e+00
1.114677e+00 1.650291e-14 0.000000e+00
1.131167e+00 -1.184331e-14 0.000000e+00
1.141135e+00 6.982225e-15 0.000000e+00
1.142288e+00 1.817837e-14 0.000000e+00
1.132286e+00 -3.883418e-14 0.000000e+00
1.110425e+00 1.836362e-14 0.000000e+00
1.071006e+00 -4.662841e-14 0.000000e+00
1.018097e+00 3.530894e-14 0.000000e+00
9.404970e-01 1.061204e-14 0.000000e+00
8.538019e-01 -1.740841e-14 0.000000e+00
7.311135e-01 -2.483130e-14 0.000000e+00
6.155954e-01 -3.636660e-15 0.000000e+00
4.391524e-01 1.109652e-14 0.000000e+00
3.051405e-01 2.782361e-14 0.000000e+00
0.000000e+00 2.383039e-14 0.000000e+00
0.000000e+00 7.213139e-15 0.000000e+00
7.065073e-02 1.687985e-14 0.000000e+00
1.236756e-01 3.081803e-14 0.000000e+00
1.726110e-01 -9.072565e-15 0.000000e+00
2.193969e-01 2.076851e-14 0.000000e+00
2.667139e-01 -9.971116e-15 0.000000e+00
3.138335e-01 2.010791e-14 0.000000e+00
3.610141e-01 -4.190828e-14 0.000000e+00
4.076255e-01 -1.616518e-14 0.000000e+00
4.538923e-01 -8.926709e-15 0.000000e+00
4.998671e-01 7.202294e-16 0.000000e+00
5.456100e-01 -2.367337e-15 0.000000e+00
5.910277e-01 -9.489475e-15 0.000000e+00
6.360487e-01 1.590372e-14 0.000000e+00
6.805334e-01 2.196372e-14 0.000000e+00
7.243024e-01 9.817628e-15 0.000000e+00
7.675083e-01 -7.982380e-15 0.000000e+00
8.096506e-01 3.662873e-15 0.000000e+00
8.511024e-01 1.575453e-14 0.000000e+00
8.910532e-01 -2.746396e-14 0.000000e+00
9.300918e-01 4.496009e-14 0.000000e+00
9.669805e-01 -3.260075e-14 0.000000e+00
1.002631e+00 1.772381e-14 0.000000e+00
1.035203e+00 -2.179694e-14 0.000000e+00
1.065771e+00 -2.080847e-14 0.000000e+00
1.092011e+00 -8.106372e-15 0.000000e+00
1.114677e+00 -3.703504e-15 0.000000e+00
1.131167e+00 -1.761410e-14 0.000000e+00
1.141135e+00 -3.418822e-16 0.000000e+00
1.142288e+00 1.175059e-15 0.000000e+00
1.132286e+00 -2.642322e-14 0.000000e+00
1.110425e+00 -8.470599e-15 0.000000e+00
1.071006e+00 -1.839737e-14 0.000000e+00
1.018097e+00 2.553920e-14 0.000000e+00
9.404970e-01 -1.652884e-14 0.000000e+00
8.538019e-01 -4.162635e-15 0.000000e+00
7.311135e-01 -3.944596e-14 0.000000e+00
6.155954e-01 1.774037e-14 0.000000e+00
4.391524e-01 1.718740e-14 0.000000e+00
3.051405e-01 -7.135739e-15 0.000000e+00
0.000000e+00 -4.471436e-14 0.000000e+00
0.000000e+00 -4.041968e-14 0.000000e+00
7.065073e-02 -3.423220e-14 0.000000e+00
1.236756e-01 2.402768e-15 0.000000e+00
1.726110e-01 -3.616465e-14 0.000000e+00
2.193969e-01 9.492859e-15 0.000000e+00
2.667139e-01 -2.397084e-14 0.000000e+00
3.138335e-01 1.677627e-14 0.000000e+00
3.610141e-01 -3.476242e-14 0.000000e+00
4.076255e-01 2.163065e-15 0.000000e+00
4.538923e-01 -2.265163e-16 0.000000e+00
4.998671e-01 1.724609e-15 0.000000e+00
5.456100e-01 5.958889e-16 0.000000e+00
5.910277e-01 1.265786e-14 0.000000e+00
6.360487e-01 -1.959702e-16 0.000000e+00
6.805334e-01 4.484778e-15 0.000000e+00
7.243024e-01 -1.436272e-14 0.000000e+00
7.675083e-01 -2.415784e-14 0.000000e+00
8.096506e-01 5.392345e-15 0.000000e+00
8.511024e-01 9.765128e-15 0.000000e+00
8.910532e-01 -1.704929e-14 0.000000e+00
9.300918e-01 2.542411e-14 0.000000e+00
9.669805e-01 -3.062814e-14 0.000000e+00
1.002631e+00 2.485477e-15 0.000000e+00
1.035203e+00 -4.603674e-15 0.000000e+00
1.065771e+00 -3.560885e-14 0.000000e+00
1.092011e+00 2.409320e-14 0.000000e+00
1.114677e+00 -2.352997e-14 0.000000e+00
1.131167e+00 -1.525754e-14 0.000000e+00
1.141135e+00 -2.041527e-14 0.000000e+00
1.142288e+00 2.887012e-14 0.000000e+00
1.132286e+00 -4.777176e-14 0.000000e+00
1.110425e+00 1.847057e-14 0.000000e+00
1.071006e+00 -9.619465e-15 0.000000e+00
1.018097e+00 3.475977e-14 0.000000e+00
9.404970e-01 -2.276241e-14 0.000000e+00
8.538019e-01 1.939491e-14 0.000000e+00
7.311135e-01 -4.044766e-14 0.000000e+00
6.155954e-01 5.373817e-15 0.000000e+00
4.391524e-01 -1.570793e-15 0.000000e+00
3.051405e-01 -2.023085e-14 0.000000e+00
0.000000e+00 6.885463e-14 0.000000e+00
0.000000e+00 0.000000e+00 0.000000e+00
7.065073e-02 0.000000e+00 0.000000e+00
1.236756e-01 0.000000e+00 0.000000e+00
1.726110e-01 0.000000e+00 0.000000e+00
2.193969e-01 0.000000e+00 0.000000e+00
2.667139e-01 0.000000e+00 0.000000e+00
3.138335e-01 0.000000e+00 0.000000e+00
3.610141e-01 0.000000e+00 0.000000e+00
4.076255e-01 0.000000e+00 0.000000e+00
4.538923e-01 0.000000e+00 0.000000e+00
4.998671e-01 0.000000e+00 0.000000e+00
5.456100e-01 0.000000e+00 0.000000e+00
5.910277e-01 0.000000e+00 0.000000e+00
6.360487e-01 0.000000e+00 0.000000e+00
6.805334e-01 0.000000e+00 0.000000e+00
7.243024e-01 0.000000e+00 0.000000e+00
7.675083e-01 0.000000e+00 0.000000e+00
8.096506e-01 0.000000e+00 0.000000e+00
8.511024e-01 0.000000e+00 0.000000e+00
8.910532e-01 0.000000e+00 0.000000e+00
9.300918e-01 0.000000e+00 0.000000e+00
9.669805e-01 0.000000e+00 0.000000e+00
1.002631e+00 0.000000e+00 0.000000e+00
1.035203e+00 0.000000e+00 0.000000e+00
1.065771e+00 0.000000e+00 0.000000e+00
1.092011e+00 0.000000e+00 0.000000e+00
1.114677e+00 0.000000e+00 0.000000e+00
1.131167e+00 0.000000e+00 0.000000e+00
1.141135e+00 0.000000e+00 0.000000e+00
1.142288e+00 0.000000e+00 0.000000e+00
1.132286e+00 0.000000e+00 0.000000e+00
1.110425e+00 0.000000e+00 0.000000e+00
1.071006e+00 0.000000e+00 0.000000e+00
1.018097e+00 0.000000e+00 0.000000e+00
9.404970e-01 0.000000e+00 0.000000e+00
8.538019e-01 0.000000e+00 0.000000e+00
7.311135e-01 0.000000e+00 0.000000e+00
6.155954e-01 0.000000e+00 0.000000e+00
4.391524e-01 0.000000e+00 0.000000e+00
3.051405e-01 0.000000e+00 0.000000e+00
0.000000e+00 0.000000e+00 0.000000e+00
0.000000e+00 0.000000e+00 -6.875665e-02
4.930672e-02 0.000000e+00 -6.029179e-02
1.000331e-01 0.000000e+00 -5.191381e-02
1.492546e-01 0.000000e+00 -5.047784e-02
1.976591e-01 0.000000e+00 -4.970411e-02
2.459112e-01 0.000000e+00 -5.002328e-02
2.940470e-01 0.000000e+00 -4.984418e-02
3.419740e-01 0.000000e+00 -4.958878e-02
3.894191e-01 0.000000e+00 -4.902470e-02
4.364466e-01 0.000000e+00 -4.872819e-02
4.831621e-01 0.000000e+00 -4.843153e-02
5.295500e-01 0.000000e+00 -4.814365e-02
5.755600e-01 0.000000e+00 -4.773551e-02
6.211078e-01 0.000000e+00 -4.728505e-02
6.660754e-01 0.000000e+00 -4.656371e-02
7.102804e-01 0.000000e+00 -4.597258e-02
7.538481e-01 0.000000e+00 -4.507461e-02
7.963053e-01 0.000000e+00 -4.421731e-02
8.379994e-01 0.000000e+00 -4.307990e-02
8.781751e-01 0.000000e+00 -4.186272e-02
9.173564e-01 0.000000e+00 -4.033679e-02
9.543588e-01 0.000000e+00 -3.855049e-02
9.900518e-01 0.000000e+00 -3.656585e-02
1.022709e+00 0.000000e+00 -3.375696e-02
1.053343e+00 0.000000e+00 -3.104951e-02
1.079707e+00 0.000000e+00 -2.655162e-02
1.102486e+00 0.000000e+00 -2.248979e-02
1.119106e+00 0.000000e+00 -1.523731e-02
1.129289e+00 0.000000e+00 -8.801378e-03
1.130629e+00 0.000000e+00 2.561145e-03
1.120661e+00 0.000000e+00 1.250988e-02
1.098658e+00 0.000000e+00 2.909706e-02
1.059222e+00 0.000000e+00 4.258637e-02
1.005907e+00 0.000000e+00 6.442294e-02
9.279681e-01 0.000000e+00 7.854734e-02
8.379623e-01 0.000000e+00 1.053726e-01
7.164354e-01 0.000000e+00 1.147527e-01
5.914550e-01 0.000000e+00 1.482621e-01
4.230595e-01 0.000000e+00 1.504352e-01
2.568720e-01 0.000000e+00 1.989415e-01
0.000000e+00 0.000000e+00 3.326814e-01
0.000000e+00 -1.309195e-14 -6.875665e-02
4.930672e-02 1.016014e-14 -6.029179e-02
1.000331e-01 -1.422866e-14 -5.191381e-02
1.492546e-01 1.290171e-14 -5.047784e-02
1.976591e-01 -2.250717e-14 -4.970411e-02
2.459112e-01 8.691955e-15 -5.002328e-02
2.940470e-01 -5.898065e-16 -4.984418e-02
3.419740e-01 1.291424e-14 -4.958878e-02
3.894191e-01 -7.194125e-15 -4.902470e-02
4.364466e-01 1.064582e-14 -4.872819e-02
4.831621e-01 -8.622763e-15 -4.843153e-02
5.295500e-01 2.164104e-14 -4.814365e-02
5.755600e-01 -2.200338e-14 -4.773551e-02
6.211078e-01 1.141768e-14 -4.728505e-02
6.660754e-01 -3.506485e-15 -4.656371e-02
7.102804e-01 -7.037940e-15 -4.597258e-02
7.538481e-01 5.117553e-16 -4.507461e-02
7.963053e-01 -5.380231e-15 -4.421731e-02
8.379994e-01 1.315506e-15 -4.307990e-02
8.781751e-01 6.394960e-15 -4.186272e-02
9.173564e-01 -3.424112e-14 -4.033679e-02
9.543588e-01 1.152851e-14 -3.855049e-02
9.900518e-01 -1.219274e-14 -3.656585e-02
1.022709e+00 1.817300e-14 -3.375696e-02
1.053343e+00 -1.863054e-15 -3.104951e-02
1.079707e+00 -9.313353e-15 -2.655162e-02
1.102486e+00 2.612177e-15 -2.248979e-02
1.119106e+00 -4.506479e-15 -1.523731e-02
1.129289e+00 5.300046e-15 -8.801378e-03
1.130629e+00 -1.559076e-17 2.561145e-03
1.120661e+00 1.079429e-14 1.250988e-02
1.098658e+00 -6.016699e-15 2.909706e-02
1.059222e+00 2.658592e-15 4.258637e-02
1.005907e+00 -1.640241e-14 6.442294e-02
9.279681e-01 7.722478e-15 7.854734e-02
8.379623e-01 1.511447e-14 1.053726e-01
7.164354e-01 -1.547690e-14 1.147527e-01
5.914550e-01 7.734771e-15 1.482621e-01
4.230595e-01 -3.206636e-14 1.504352e-01
2.568720e-01 3.160702e-14 1.989415e-01
0.000000e+00 2.177993e-15 3.326814e-01
0.000000e+00 3.773349e-15 -6.875665e-02
4.930672e-02 -9.584155e-15 -6.029179e-02
1.000331e-01 1.615711e-17 -5.191381e-02
1.492546e-01 -1.051100e-15 -5.047784e-02
1.976591e-01 1.897229e-14 -4.970411e-02
2.459112e-01 -1.268299e-14 -5.002328e-02
2.940470e-01 1.086098e-14 -4.984418e-02
3.419740e-01 9.776344e-15 -4.958878e-02
3.894191e-01 -3.041453e-15 -4.902470e-02
4.364466e-01 -1.977223e-14 -4.872819e-02
4.831621e-01 -5.238261e-15 -4.843153e-02
5.295500e-01 2.079760e-14 -4.814365e-02
5.755600e-01 -1.568325e-14 -4.773551e-02
6.211078e-01 5.998158e-15 -4.728505e-02
6.660754e-01 -2.118451e-15 -4.656371e-02
7.102804e-01 -8.049227e-16 -4.597258e-02
7.538481e-01 -5.695906e-15 -4.507461e-02
7.963053e-01 -2.667505e-15 -4.421731e-02
8.379994e-01 -5.279736e-15 -4.307990e-02
8.781751e-01 5.811308e-15 -4.186272e-02
9.173564e-01 -3.879304e-14 -4.033679e-02
9.543588e-01 1.306859e-14 -3.855049e-02
9.900518e-01 -1.253557e-14 -3.656585e-02
1.022709e+00 2.653133e-14 -3.375696e-02
1.053343e+00 -5.841592e-15 -3.104951e-02
1.079707e+00 -8.651754e-15 -2.655162e-02
1.102486e+00 -1.018974e-14 -2.248979e-02
1.119106e+00 -1.205295e-14 -1.523731e-02
1.129289e+00 1.029927e-14 -8.801378e-03
1.130629e+00 -3.739576e-15 2.561145e-03
1.120661e+00 5.616745e-15 1.250988e-02
1.098658e+00 -1.697882e-14 2.909706e-02
1.059222e+00 2.612144e-14 4.258637e-02
1.005907e+00 -2.265029e-14 6.442294e-02
9.279681e-01 2.364004e-14 7.854734e-02
8.379623e-01 -4.339458e-15 1.053726e-01
7.164354e-01 -2.283178e-14 1.147527e-01
5.914550e-01 2.573448e-15 1.482621e-01
4.230595e-01 -4.242894e-14 1.504352e-01
2.568720e-01 6.267508e-14 1.989415e-01
0.000000e+00 -3.170043e-14 3.326814e-01
0.000000e+00 -1.221884e-15 -6.875665e-02
4.930672e-02 2.013138e-14 -6.029179e-02
1.000331e-01 -1.191452e-14 -5.191381e-02
1.492546e-01 3.560167e-14 -5.047784e-02
1.976591e-01 -1.651250e-14 -4.970411e-02
2.459112e-01 -1.347779e-14 -5.002328e-02
2.940470e-01 1.095372e-14 -4.984418e-02
3.419740e-01 1.558136e-14 -4.958878e-02
3.894191e-01 -6.912351e-15 -4.902470e-02
4.364466e-01 3.054501e-15 -4.872819e-02
4.831621e-01 -1.062401e-14 -4.843153e-02
5.295500e-01 3.153497e-14 -4.814365e-02
5.755600e-01 -2.015617e-14 -4.773551e-02
6.211078e-01 3.167443e-15 -4.728505e-02
6.660754e-01 -1.123158e-14 -4.656371e-02
7.102804e-01 8.216470e-15 -4.597258e-02
7.538481e-01 -2.530444e-14 -4.507461e-02
7.963053e-01 3.807824e-15 -4.421731e-02
8.379994e-01 -3.503095e-15 -4.307990e-02
8.781751e-01 4.232905e-15 -4.186272e-02
9.173564e-01 -3.401882e-14 -4.033679e-02
9.543588e-01 1.622989e-14 -3.855049e-02
9.900518e-01 -2.533180e-15 -3.656585e-02
1.022709e+00 2.021144e-14 -3.375696e-02
1.053343e+00 -1.779250e-15 -3.104951e-02
1.079707e+00 -8.870242e-16 -2.655162e-02
1.102486e+00 -9.294888e-15 -2.248979e-02
1.119106e+00 1.324209e-15 -1.523731e-02
1.129289e+00 1.265483e-14 -8.801378e-03
1.130629e+00 -1.681300e-14 2.561145e-03
1.120661e+00 2.107227e-14 1.250988e-02
1.098658e+00 -6.266334e-15 2.909706e-02
1.059222e+00 2.808343e-14 4.258637e-02
1.005907e+00 -2.429580e-14 6.442294e-02
9.279681e-01 1.177105e-14 7.854734e-02
8.379623e-01 -1.378458e-14 1.053726e-01
7.164354e-01 3.295219e-14 1.147527e-01
5.914550e-01 -2.005135e-14 1.482621e-01
4.230595e-01 -4.709472e-14 1.504352e-01
2.568720e-01 5.140801e-14 1.989415e-01
0.000000e+00 -2.229692e-14 3.326814e-01
0.000000e+00 2.606554e-14 -6.875665e-02
4.930672e-02 -1.097220e-14 -6.029179e-02
1.000331e-01 -2.679453e-15 -5.191381e-02
1.492546e-01 6.621940e-15 -5.047784e-02
1.976591e-01 -1.349905e-14 -4.970411e-02
2.459112e-01 2.458932e-15 -5.002328e-02
2.940470e-01 1.124707e-14 -4.984418e-02
3.419740e-01 1.941097e-14 -4.958878e-02
3.894191e-01 -1.502681e-14 -4.902470e-02
4.364466e-01 9.976663e-15 -4.872819e-02
4.831621e-01 -1.327278e-14 -4.843153e-02
5.295500e-01 2.437159e-14 -4.814365e-02
5.755600e-01 -1.388961e-14 -4.773551e-02
6.211078e-01 7.543788e-16 -4.728505e-02
6.660754e-01 -7.771195e-15 -4.656371e-02
7.102804e-01 8.006797e-15 -4.597258e-02
7.538481e-01 2.999730e-15 -4.507461e-02
7.963053e-01 2.870363e-16 -4.421731e-02
8.379994e-01 3.590991e-16 -4.307990e-02
8.781751e-01 7.778920e-15 -4.186272e-02
9.173564e-01 -4.364893e-14 -4.033679e-02
9.543588e-01 1.845252e-14 -3.855049e-02
9.900518e-01 -8.126968e-15 -3.656585e-02
1.022709e+00 2.302413e-14 -3.375696e-02
1.053343e+00 8.469057e-15 -3.104951e-02
1.079707e+00 -1.882611e-14 -2.655162e-02
1.102486e+00 -9.020976e-16 -2.248979e-02
1.119106e+00 -2.615434e-15 -1.523731e-02
1.129289e+00 1.648078e-14 -8.801378e-03
1.130629e+00 -3.714978e-14 2.561145e-03
1.120661e+00 2.194060e-14 1.250988e-02
1.098658e+00 -9.029153e-15 2.909706e-02
1.059222e+00 2.421495e-14 4.258637e-02
1.005907e+00 -1.836895e-14 6.442294e-02
9.279681e-01 -7.065241e-15 7.854734e-02
8.379623e-01 1.156945e-14 1.053726e-01
7.164354e-01 1.566965e-14 1.147527e-01
5.914550e-01 -2.494989e-14 1.482621e-01
4.230595e-01 -1.640342e-14 1.504352e-01
2.568720e-01 3.264453e-14 1.989415e-01
0.000000e+00 1.277998e-14 3.326814e-01
0.000000e+00 -2.463556e-14 -6.875665e-02
4.930672e-02 7.883294e-15 -6.029179e-02
1.000331e-01 -8.809292e-15 -5.191381e-02
1.492546e-01 8.073707e-15 -5.047784e-02
1.976591e-01 -9.554980e-15 -4.970411e-02
2.459112e-01 8.191664e-15 -5.002328e-02
2.940470e-01 -2.918476e-14 -4.984418e-02
3.419740e-01 2.522557e-14 -4.958878e-02
3.894191e-01 -2.269947e-14 -4.902470e-02
4.364466e-01 -9.014772e-15 -4.872819e-02