# vtk DataFile Version 3.0
vtk output
ASCII
DATASET UNSTRUCTURED_GRID
POINTS 11767 float
0.000000e+00 0.000000e+00 0.000000e+00
1.460000e-02 0.000000e+00 0.000000e+00
2.920000e-02 0.000000e+00 0.000000e+00
4.380000e-02 0.000000e+00 0.000000e+00
5.840000e-02 0.000000e+00 0.000000e+00
7.300000e-02 0.000000e+00 0.000000e+00
8.760000e-02 0.000000e+00 0.000000e+00
1.022000e-01 0.000000e+00 0.000000e+00
1.168000e-01 0.000000e+00 0.000000e+00
1.314000e-01 0.000000e+00 0.000000e+00
1.460000e-01 0.000000e+00 0.000000e+00
1.606000e-01 0.000000e+00 0.000000e+00
1.752000e-01 0.000000e+00 0.000000e+00
1.898000e-01 0.000000e+00 0.000000e+00
2.044000e-01 0.000000e+00 0.000000e+00
2.190000e-01 0.000000e+00 0.000000e+00
2.336000e-01 0.000000e+00 0.000000e+00
2.482000e-01 0.000000e+00 0.000000e+00
2.628000e-01 0.000000e+00 0.000000e+00
2.774000e-01 0.000000e+00 0.000000e+00
2.920000e-01 0.000000e+00 0.000000e+00
3.066000e-01 0.000000e+00 0.000000e+00
3.212000e-01 0.000000e+00 0.000000e+00
3.358000e-01 0.000000e+00 0.000000e+00
3.504000e-01 0.000000e+00 0.000000e+00
3.650000e-01 0.000000e+00 0.000000e+00
3.796000e-01 0.000000e+00 0.000000e+00
3.942000e-01 0.000000e+00 0.000000e+00
4.088000e-01 0.000000e+00 0.000000e+00
4.234000e-01 0.000000e+00 0.000000e+00
4.380000e-01 0.000000e+00 0.000000e+00
4.526000e-01 0.000000e+00 0.000000e+00
4.672000e-01 0.000000e+00 0.000000e+00
4.818000e-01 0.000000e+00 0.000000e+00
4.964000e-01 0.000000e+00 0.000000e+00
5.110000e-01 0.000000e+00 0.000000e+00
5.256000e-01 0.000000e+00 0.000000e+00
5.402000e-01 0.000000e+00 0.000000e+00
5.548000e-01 0.000000e+00 0.000000e+00
5.694000e-01 0.000000e+00 0.000000e+00
5.840000e-01 0.000000e+00 0.000000e+00
0.000000e+00 1.460000e-02 0.000000e+00
1.460000e-02 1.460000e-02 0.000000e+00
2.920000e-02 1.460000e-02 0.000000e+00
4.380000e-02 1.460000e-02 0.000000e+00
5.840000e-02 1.460000e-02 0.000000e+00
7.300000e-02 1.460000e-02 0.000000e+00
8.760000e-02 1.460000e-02 0.000000e+00
1.022000e-01 1.460000e-02 0.000000e+00
1.168000e-01 1.460000e-02 0.000000e+00
1.314000e-01 1.460000e-02 0.000000e+00
1.460000e-01 1.460000e-02 0.000000e+00
1.606000e-01 1.460000e-02 0.000000e+00
1.752000e-01 1.460000e-02 0.000000e+00
1.898000e-01 1.460000e-02 0.000000e+00
2.044000e-01 1.460000e-02 0.000000e+00
2.190000e-01 1.460000e-02 0.000000e+00
2.336000e-01 1.460000e-02 0.000000e+00
2.482000e-01 1.460000e-02 0.000000e+00
2.628000e-01 1.460000e-02 0.000000e+00
2.774000e-01 1.460000e-02 0.000000e+00
2.920000e-01 1.460000e-02 0.000000e+00
3.066000e-01 1.460000e-02 0.000000e+00
3.212000e-01 1.460000e-02 0.000000e+00
3.358000e-01 1.460000e-02 0.000000e+00
3.504000e-01 1.460000e-02 0.000000e+00
3.650000e-01 1.460000e-02 0.000000e+00
3.796000e-01 1.460000e-02 0.000000e+00
3.942000e-01 1.460000e-02 0.000000e+00
4.088000e-01 1.460000e-02 0.000000e+00
4.234000e-01 1.460000e-02 0.000000e+00
4.380000e-01 1.460000e-02 0.000000e+00
4.526000e-01 1.460000e-02 0.000000e+00
4.672000e-01 1.460000e-02 0.000000e+00
4.818000e-01 1.460000e-02 0.000000e+00
4.964000e-01 1.460000e-02 0.000000e+00
5.110000e-01 1.460000e-02 0.000000e+00
5.256000e-01 1.460000e-02 0.000000e+00
5.402000e-01 1.460000e-02 0.000000e+00
5.548000e-01 1.460000e-02 0.000000e+00
5.694000e-01 1.460000e-02 0.000000e+00
5.840000e-01 1.460000e-02 0.000000e+00
0.000000e+00 2.920000e-02 0.000000e+00
1.460000e-02 2.920000e-02 0.000000e+00
2.920000e-02 2.920000e-02 0.000000e+00
4.380000e-02 2.920000e-02 0.000000e+00
5.840000e-02 2.920000e-02 0.000000e+00
7.300000e-02 2.920000e-02 0.000000e+00
8.760000e-02 2.920000e-02 0.000000e+00
1.022000e-01 2.920000e-02 0.000000e+00
1.168000e-01 2.920000e-02 0.000000e+00
1.314000e-01 2.920000e-02 0.000000e+00
1.460000e-01 2.920000e-02 0.000000e+00
1.606000e-01 2.920000e-02 0.000000e+00
1.752000e-01 2.920000e-02 0.000000e+00
1.898000e-01 2.920000e-02 0.000000e+00
2.044000e-01 2.920000e-02 0.000000e+00
2.190000e-01 2.920000e-02 0.000000e+00
2.336000e-01 2.920000e-02 0.000000e+00
2.482000e-01 2.920000e-02 0.000000e+00
2.628000e-01 2.920000e-02 0.000000e+00
2.774000e-01 2.920000e-02 0.000000e+00
2.920000e-01 2.920000e-02 0.000000e+00
3.066000e-01 2.920000e-02 0.000000e+00
3.212000e-01 2.920000e-02 0.000000e+00
3.358000e-01 2.920000e-02 0.000000e+00
3.504000e-01 2.920000e-02 0.000000e+00
3.650000e-01 2.920000e-02 0.000000e+00
3.796000e-01 2.920000e-02 0.000000e+00
3.942000e-01 2.920000e-02 0.000000e+00
4.088000e-01 2.920000e-02 0.000000e+00
4.234000e-01 2.920000e-02 0.000000e+00
4.380000e-01 2.920000e-02 0.000000e+00
4.526000e-01 2.920000e-02 0.000000e+00
4.672000e-01 2.920000e-02 0.000000e+00
4.818000e-01 2.920000e-02 0.000000e+00
4.964000e-01 2.920000e-02 0.000000e+00
5.110000e-01 2.920000e-02 0.000000e+00
5.256000e-01 2.920000e-02 0.000000e+00
5.402000e-01 2.920000e-02 0.000000e+00
5.548000e-01 2.920000e-02 0.000000e+00
5.694000e-01 2.920000e-02 0.000000e+00
5.840000e-01 2.920000e-02 0.000000e+00
0.000000e+00 4.380000e-02 0.000000e+00
1.460000e-02 4.380000e-02 0.000000e+00
2.920000e-02 4.380000e-02 0.000000e+00
4.380000e-02 4.380000e-02 0.000000e+00
5.840000e-02 4.380000e-02 0.000000e+00
7.300000e-02 4.380000e-02 0.000000e+00
8.760000e-02 4.380000e-02 0.000000e+00
1.022000e-01 4.380000e-02 0.000000e+00
1.168000e-01 4.380000e-02 0.000000e+00
1.314000e-01 4.380000e-02 0.000000e+00
1.460000e-01 4.380000e-02 0.000000e+00
1.606000e-01 4.380000e-02 0.000000e+00
1.752000e-01 4.380000e-02 0.000000e+00
1.898000e-01 4.380000e-02 0.000000e+00
2.044000e-01 4.380000e-02 0.000000e+00
2.190000e-01 4.380000e-02 0.000000e+00
2.336000e-01 4.380000e-02 0.000000e+00
2.482000e-01 4.380000e-02 0.000000e+00
2.628000e-01 4.380000e-02 0.000000e+00
2.774000e-01 4.380000e-02 0.000000e+00
2.920000e-01 4.380000e-02 0.000000e+00
3.066000e-01 4.380000e-02 0.000000e+00
3.212000e-01 4.380000e-02 0.000000e+00
3.358000e-01 4.380000e-02 0.000000e+00
3.504000e-01 4.380000e-02 0.000000e+00
3.650000e-01 4.380000e-02 0.000000e+00
3.796000e-01 4.380000e-02 0.000000e+00
3.942000e-01 4.380000e-02 0.000000e+00
4.088000e-01 4.380000e-02 0.000000e+00
4.234000e-01 4.380000e-02 0.000000e+00
4.380000e-01 4.380000e-02 0.000000e+00
4.526000e-01 4.380000e-02 0.000000e+00
4.672000e-01 4.380000e-02 0.000000e+00
4.818000e-01 4.380000e-02 0.000000e+00
4.964000e-01 4.380000e-02 0.000000e+00
5.110000e-01 4.380000e-02 0.000000e+00
5.256000e-01 4.380000e-02 0.000000e+00
5.402000e-01 4.380000e-02 0.000000e+00
5.548000e-01 4.380000e-02 0.000000e+00
5.694000e-01 4.380000e-02 0.000000e+00
5.840000e-01 4.380000e-02 0.000000e+00
0.000000e+00 5.840000e-02 0.000000e+00
1.460000e-02 5.840000e-02 0.000000e+00
2.920000e-02 5.840000e-02 0.000000e+00
4.380000e-02 5.840000e-02 0.000000e+00
5.840000e-02 5.840000e-02 0.000000e+00
7.300000e-02 5.840000e-02 0.000000e+00
8.760000e-02 5.840000e-02 0.000000e+00
1.022000e-01 5.840000e-02 0.000000e+00
1.168000e-01 5.840000e-02 0.000000e+00
1.314000e-01 5.840000e-02 0.000000e+00
1.460000e-01 5.840000e-02 0.000000e+00
1.606000e-01 5.840000e-02 0.000000e+00
1.752000e-01 5.840000e-02 0.000000e+00
1.898000e-01 5.840000e-02 0.000000e+00
2.044000e-01 5.840000e-02 0.000000e+00
2.190000e-01 5.840000e-02 0.000000e+00
2.336000e-01 5.840000e-02 0.000000e+00
2.482000e-01 5.840000e-02 0.000000e+00
2.628000e-01 5.840000e-02 0.000000e+00
2.774000e-01 5.840000e-02 0.000000e+00
2.920000e-01 5.840000e-02 0.000000e+00
3.066000e-01 5.840000e-02 0.000000e+00
3.212000e-01 5.840000e-02 0.000000e+00
3.358000e-01 5.840000e-02 0.000000e+00
3.504000e-01 5.840000e-02 0.000000e+00
3.650000e-01 5.840000e-02 0.000000e+00
3.796000e-01 5.840000e-02 0.000000e+00
3.942000e-01 5.840000e-02 0.000000e+00
4.088000e-01 5.840000e-02 0.000000e+00
4.234000e-01 5.840000e-02 0.000000e+00
4.380000e-01 5.840000e-02 0.000000e+00
4.526000e-01 5.840000e-02 0.000000e+00
4.672000e-01 5.840000e-02 0.000000e+00
4.818000e-01 5.840000e-02 0.000000e+00
4.964000e-01 5.840000e-02 0.000000e+00
5.110000e-01 5.840000e-02 0.000000e+00
5.256000e-01 5.840000e-02 0.000000e+00
5.402000e-01 5.840000e-02 0.000000e+00
5.548000e-01 5.840000e-02 0.000000e+00
5.694000e-01 5.840000e-02 0.000000e+00
5.840000e-01 5.840000e-02 0.000000e+00
0.000000e+00 7.300000e-02 0.000000e+00
1.460000e-02 7.300000e-02 0.000000e+00
2.920000e-02 7.300000e-02 0.000000e+00
4.380000e-02 7.300000e-02 0.000000e+00
5.840000e-02 7.300000e-02 0.000000e+00
7.300000e-02 7.300000e-02 0.000000e+00
8.760000e-02 7.300000e-02 0.000000e+00
1.022000e-01 7.300000e-02 0.000000e+00
1.168000e-01 7.300000e-02 0.000000e+00
1.314000e-01 7.300000e-02 0.000000e+00
1.460000e-01 7.300000e-02 0.000000e+00
1.606000e-01 7.300000e-02 0.000000e+00
1.752000e-01 7.300000e-02 0.000000e+00
1.898000e-01 7.300000e-02 0.000000e+00
2.044000e-01 7.300000e-02 0.000000e+00
2.190000e-01 7.300000e-02 0.000000e+00
2.336000e-01 7.300000e-02 0.000000e+00
2.482000e-01 7.300000e-02 0.000000e+00
2.628000e-01 7.300000e-02 0.000000e+00
2.774000e-01 7.300000e-02 0.000000e+00
2.920000e-01 7.300000e-02 0.000000e+00
3.066000e-01 7.300000e-02 0.000000e+00
3.212000e-01 7.300000e-02 0.000000e+00
3.358000e-01 7.300000e-02 0.000000e+00
3.504000e-01 7.300000e-02 0.000000e+00
3.650000e-01 7.300000e-02 0.000000e+00
3.796000e-01 7.300000e-02 0.000000e+00
3.942000e-01 7.300000e-02 0.000000e+00
4.088000e-01 7.300000e-02 0.000000e+00
4.234000e-01 7.300000e-02 0.000000e+00
4.380000e-01 7.300000e-02 0.000000e+00
4.526000e-01 7.300000e-02 0.000000e+00
4.672000e-01 7.300000e-02 0.000000e+00
4.818000e-01 7.300000e-02 0.000000e+00
4.964000e-01 7.300000e-02 0.000000e+00
5.110000e-01 7.300000e-02 0.000000e+00
5.256000e-01 7.300000e-02 0.000000e+00
5.402000e-01 7.300000e-02 0.000000e+00
5.548000e-01 7.300000e-02 0.000000e+00
5.694000e-01 7.300000e-02 0.000000e+00
5.840000e-01 7.300000e-02 0.000000e+00
0.000000e+00 8.760000e-02 0.000000e+00
1.460000e-02 8.760000e-02 0.000000e+00
2.920000e-02 8.760000e-02 0.000000e+00
4.380000e-02 8.760000e-02 0.000000e+00
5.840000e-02 8.760000e-02 0.000000e+00
7.300000e-02 8.760000e-02 0.000000e+00
8.760000e-02 8.760000e-02 0.000000e+00
1.022000e-01 8.760000e-02 0.000000e+00
[...]
POINT_DATA 11767
VECTORS Velocity float
0.000000e+00 0.000000e+00 0.000000e+00
2.663447e-02 0.000000e+00 0.000000e+00
4.529860e-02 0.000000e+00 0.000000e+00
6.049438e-02 0.000000e+00 0.000000e+00
7.266156e-02 0.000000e+00 0.000000e+00
8.247593e-02 0.000000e+00 0.000000e+00
8.994775e-02 0.000000e+00 0.000000e+00
9.526580e-02 0.000000e+00 0.000000e+00
9.848578e-02 0.000000e+00 0.000000e+00
9.994552e-02 0.000000e+00 0.000000e+00
1.000834e-01 0.000000e+00 0.000000e+00
9.936873e-02 0.000000e+00 0.000000e+00
9.816250e-02 0.000000e+00 0.000000e+00
9.669799e-02 0.000000e+00 0.000000e+00
9.511616e-02 0.000000e+00 0.000000e+00
9.361632e-02 0.000000e+00 0.000000e+00
9.235563e-02 0.000000e+00 0.000000e+00
9.145836e-02 0.000000e+00 0.000000e+00
9.093834e-02 0.000000e+00 0.000000e+00
9.074671e-02 0.000000e+00 0.000000e+00
9.072269e-02 0.000000e+00 0.000000e+00
9.069136e-02 0.000000e+00 0.000000e+00
9.048808e-02 0.000000e+00 0.000000e+00
9.005557e-02 0.000000e+00 0.000000e+00
8.937319e-02 0.000000e+00 0.000000e+00
8.856199e-02 0.000000e+00 0.000000e+00
8.775971e-02 0.000000e+00 0.000000e+00
8.713261e-02 0.000000e+00 0.000000e+00
8.674843e-02 0.000000e+00 0.000000e+00
8.671702e-02 0.000000e+00 0.000000e+00
8.697123e-02 0.000000e+00 0.000000e+00
8.741385e-02 0.000000e+00 0.000000e+00
8.779383e-02 0.000000e+00 0.000000e+00
8.770890e-02 0.000000e+00 0.000000e+00
8.688429e-02 0.000000e+00 0.000000e+00
8.481986e-02 0.000000e+00 0.000000e+00
8.062524e-02 0.000000e+00 0.000000e+00
7.494808e-02 0.000000e+00 0.000000e+00
6.214593e-02 0.000000e+00 0.000000e+00
4.676162e-02 0.000000e+00 0.000000e+00
0.000000e+00 0.000000e+00 0.000000e+00
0.000000e+00 6.859259e-14 0.000000e+00
2.663447e-02 1.452330e-13 0.000000e+00
4.529860e-02 2.091922e-13 0.000000e+00
6.049438e-02 2.364942e-13 0.000000e+00
7.266156e-02 1.569366e-13 0.000000e+00
8.247593e-02 -7.617974e-14 0.000000e+00
8.994775e-02 -4.088215e-13 0.000000e+00
9.526580e-02 -6.414376e-13 0.000000e+00
9.848578e-02 -7.311268e-13 0.000000e+00
9.994552e-02 -7.885170e-13 0.000000e+00
1.000834e-01 -6.336555e-13 0.000000e+00
9.936873e-02 -5.152462e-13 0.000000e+00
9.816250e-02 -3.776399e-13 0.000000e+00
9.669799e-02 -4.369711e-13 0.000000e+00
9.511616e-02 -5.208080e-13 0.000000e+00
9.361632e-02 -4.337354e-13 0.000000e+00
9.235563e-02 -3.732491e-13 0.000000e+00
9.145836e-02 -2.854861e-13 0.000000e+00
9.093834e-02 -2.138634e-13 0.000000e+00
9.074671e-02 -2.872170e-13 0.000000e+00
9.072269e-02 -2.965523e-13 0.000000e+00
9.069136e-02 -2.869421e-13 0.000000e+00
9.048808e-02 -2.913151e-13 0.000000e+00
9.005557e-02 -2.164032e-13 0.000000e+00
8.937319e-02 -2.277595e-13 0.000000e+00
8.856199e-02 -6.697080e-14 0.000000e+00
8.775971e-02 -7.770444e-14 0.000000e+00
8.713261e-02 1.677753e-14 0.000000e+00
8.674843e-02 -1.905043e-14 0.000000e+00
8.671702e-02 -3.650071e-14 0.000000e+00
8.697123e-02 -1.273518e-13 0.000000e+00
8.741385e-02 -8.620851e-14 0.000000e+00
8.779383e-02 -1.206814e-13 0.000000e+00
8.770890e-02 1.642182e-14 0.000000e+00
8.688429e-02 -6.475565e-15 0.000000e+00
8.481986e-02 1.060611e-13 0.000000e+00
8.062524e-02 7.066147e-14 0.000000e+00
7.494808e-02 1.920399e-13 0.000000e+00
6.214593e-02 1.477459e-13 0.000000e+00
4.676162e-02 3.105831e-13 0.000000e+00
0.000000e+00 6.475925e-13 0.000000e+00
0.000000e+00 8.241164e-14 0.000000e+00
2.663447e-02 2.180290e-13 0.000000e+00
4.529860e-02 2.970223e-13 0.000000e+00
6.049438e-02 3.501331e-13 0.000000e+00
7.266156e-02 2.471004e-13 0.000000e+00
8.247593e-02 -4.696591e-14 0.000000e+00
8.994775e-02 -5.015709e-13 0.000000e+00
9.526580e-02 -8.290881e-13 0.000000e+00
9.848578e-02 -9.823141e-13 0.000000e+00
9.994552e-02 -1.107994e-12 0.000000e+00
1.000834e-01 -9.075453e-13 0.000000e+00
9.936873e-02 -8.473278e-13 0.000000e+00
9.816250e-02 -6.641235e-13 0.000000e+00
9.669799e-02 -7.451341e-13 0.000000e+00
9.511616e-02 -8.358894e-13 0.000000e+00
9.361632e-02 -6.908375e-13 0.000000e+00
9.235563e-02 -5.695212e-13 0.000000e+00
9.145836e-02 -4.551635e-13 0.000000e+00
9.093834e-02 -3.099820e-13 0.000000e+00
9.074671e-02 -4.062575e-13 0.000000e+00
9.072269e-02 -3.768660e-13 0.000000e+00
9.069136e-02 -3.694672e-13 0.000000e+00
9.048808e-02 -3.529247e-13 0.000000e+00
9.005557e-02 -2.527584e-13 0.000000e+00
8.937319e-02 -2.910270e-13 0.000000e+00
8.856199e-02 -1.105016e-13 0.000000e+00
8.775971e-02 -1.430521e-13 0.000000e+00
8.713261e-02 -3.714831e-14 0.000000e+00
8.674843e-02 -8.063008e-14 0.000000e+00
8.671702e-02 -6.355201e-14 0.000000e+00
8.697123e-02 -1.897513e-13 0.000000e+00
8.741385e-02 -1.118672e-13 0.000000e+00
8.779383e-02 -1.455983e-13 0.000000e+00
8.770890e-02 1.100606e-15 0.000000e+00
8.688429e-02 3.118302e-14 0.000000e+00
8.481986e-02 1.172378e-13 0.000000e+00
8.062524e-02 1.401654e-13 0.000000e+00
7.494808e-02 2.227089e-13 0.000000e+00
6.214593e-02 2.756687e-13 0.000000e+00
4.676162e-02 3.747044e-13 0.000000e+00
0.000000e+00 9.734954e-13 0.000000e+00
0.000000e+00 1.348090e-13 0.000000e+00
2.663447e-02 1.896989e-13 0.000000e+00
4.529860e-02 2.561666e-13 0.000000e+00
6.049438e-02 3.111509e-13 0.000000e+00
7.266156e-02 2.720260e-13 0.000000e+00
8.247593e-02 1.043402e-13 0.000000e+00
8.994775e-02 -2.173615e-13 0.000000e+00
9.526580e-02 -4.557602e-13 0.000000e+00
9.848578e-02 -6.406280e-13 0.000000e+00
9.994552e-02 -8.201331e-13 0.000000e+00
1.000834e-01 -7.325428e-13 0.000000e+00
9.936873e-02 -8.647347e-13 0.000000e+00
9.816250e-02 -7.573535e-13 0.000000e+00
9.669799e-02 -8.292771e-13 0.000000e+00
9.511616e-02 -8.484340e-13 0.000000e+00
9.361632e-02 -6.495117e-13 0.000000e+00
9.235563e-02 -5.408529e-13 0.000000e+00
9.145836e-02 -4.275195e-13 0.000000e+00
9.093834e-02 -2.704263e-13 0.000000e+00
9.074671e-02 -3.458973e-13 0.000000e+00
9.072269e-02 -2.893548e-13 0.000000e+00
9.069136e-02 -2.593933e-13 0.000000e+00
9.048808e-02 -2.481314e-13 0.000000e+00
9.005557e-02 -1.443391e-13 0.000000e+00
8.937319e-02 -2.255111e-13 0.000000e+00
8.856199e-02 -7.209303e-14 0.000000e+00
8.775971e-02 -1.585520e-13 0.000000e+00
8.713261e-02 -6.478628e-14 0.000000e+00
8.674843e-02 -1.054076e-13 0.000000e+00
8.671702e-02 -4.812057e-14 0.000000e+00
8.697123e-02 -1.599853e-13 0.000000e+00
8.741385e-02 -7.593882e-14 0.000000e+00
8.779383e-02 -1.204951e-13 0.000000e+00
8.770890e-02 2.385051e-14 0.000000e+00
8.688429e-02 3.371179e-14 0.000000e+00
8.481986e-02 1.260995e-13 0.000000e+00
8.062524e-02 1.270660e-13 0.000000e+00
7.494808e-02 2.320049e-13 0.000000e+00
6.214593e-02 2.455165e-13 0.000000e+00
4.676162e-02 3.855655e-13 0.000000e+00
0.000000e+00 9.695817e-13 0.000000e+00
0.000000e+00 7.025681e-14 0.000000e+00
2.663447e-02 1.009497e-13 0.000000e+00
4.529860e-02 1.354923e-13 0.000000e+00
6.049438e-02 2.041308e-13 0.000000e+00
7.266156e-02 2.304448e-13 0.000000e+00
8.247593e-02 2.306362e-13 0.000000e+00
8.994775e-02 1.121621e-13 0.000000e+00
9.526580e-02 3.762859e-14 0.000000e+00
9.848578e-02 -1.339786e-13 0.000000e+00
9.994552e-02 -3.160609e-13 0.000000e+00
1.000834e-01 -3.586565e-13 0.000000e+00
9.936873e-02 -6.275697e-13 0.000000e+00
9.816250e-02 -5.920604e-13 0.000000e+00
9.669799e-02 -6.714822e-13 0.000000e+00
9.511616e-02 -6.152315e-13 0.000000e+00
9.361632e-02 -4.295627e-13 0.000000e+00
9.235563e-02 -3.606137e-13 0.000000e+00
9.145836e-02 -2.957957e-13 0.000000e+00
9.093834e-02 -1.655490e-13 0.000000e+00
9.074671e-02 -2.346923e-13 0.000000e+00
9.072269e-02 -1.714881e-13 0.000000e+00
9.069136e-02 -1.542416e-13 0.000000e+00
9.048808e-02 -1.459854e-13 0.000000e+00
9.005557e-02 -7.837207e-14 0.000000e+00
8.937319e-02 -1.527012e-13 0.000000e+00
8.856199e-02 -1.930249e-14 0.000000e+00
8.775971e-02 -9.415070e-14 0.000000e+00
8.713261e-02 -7.377954e-15 0.000000e+00
8.674843e-02 -4.909516e-14 0.000000e+00
8.671702e-02 -6.383358e-15 0.000000e+00
8.697123e-02 -1.033071e-13 0.000000e+00
8.741385e-02 -3.233697e-14 0.000000e+00
8.779383e-02 -8.783587e-14 0.000000e+00
8.770890e-02 3.013033e-14 0.000000e+00
8.688429e-02 3.409583e-14 0.000000e+00
8.481986e-02 1.093159e-13 0.000000e+00
8.062524e-02 1.218550e-13 0.000000e+00
7.494808e-02 1.940034e-13 0.000000e+00
6.214593e-02 2.439414e-13 0.000000e+00
4.676162e-02 3.035683e-13 0.000000e+00
0.000000e+00 8.380417e-13 0.000000e+00
0.000000e+00 -2.003572e-14 0.000000e+00
2.663447e-02 6.590286e-15 0.000000e+00
4.529860e-02 3.722416e-14 0.000000e+00
6.049438e-02 9.164827e-14 0.000000e+00
7.266156e-02 1.195699e-13 0.000000e+00
8.247593e-02 1.892507e-13 0.000000e+00
8.994775e-02 1.732325e-13 0.000000e+00
9.526580e-02 1.931304e-13 0.000000e+00
9.848578e-02 8.018603e-14 0.000000e+00
9.994552e-02 -3.289041e-14 0.000000e+00
1.000834e-01 -1.112168e-13 0.000000e+00
9.936873e-02 -2.990670e-13 0.000000e+00
9.816250e-02 -2.912482e-13 0.000000e+00
9.669799e-02 -3.602404e-13 0.000000e+00
9.511616e-02 -3.163604e-13 0.000000e+00
9.361632e-02 -1.975950e-13 0.000000e+00
9.235563e-02 -1.865765e-13 0.000000e+00
9.145836e-02 -1.474368e-13 0.000000e+00
9.093834e-02 -7.967084e-14 0.000000e+00
9.074671e-02 -1.328086e-13 0.000000e+00
9.072269e-02 -1.061513e-13 0.000000e+00
9.069136e-02 -8.809532e-14 0.000000e+00
9.048808e-02 -1.063461e-13 0.000000e+00
9.005557e-02 -5.722667e-14 0.000000e+00
8.937319e-02 -1.013995e-13 0.000000e+00
8.856199e-02 1.489945e-14 0.000000e+00
8.775971e-02 -3.189633e-14 0.000000e+00
8.713261e-02 3.556125e-14 0.000000e+00
8.674843e-02 8.221623e-15 0.000000e+00
8.671702e-02 1.613442e-14 0.000000e+00
8.697123e-02 -5.208262e-14 0.000000e+00
8.741385e-02 -7.117369e-15 0.000000e+00
8.779383e-02 -7.086797e-14 0.000000e+00
8.770890e-02 3.632453e-14 0.000000e+00
8.688429e-02 -4.404502e-15 0.000000e+00
8.481986e-02 9.306337e-14 0.000000e+00
8.062524e-02 5.262710e-14 0.000000e+00
7.494808e-02 1.630914e-13 0.000000e+00
6.214593e-02 1.151173e-13 0.000000e+00
4.676162e-02 2.530931e-13 0.000000e+00
0.000000e+00 5.498412e-13 0.000000e+00
0.000000e+00 0.000000e+00 0.000000e+00
2.663447e-02 0.000000e+00 0.000000e+00
4.529860e-02 0.000000e+00 0.000000e+00
6.049438e-02 0.000000e+00 0.000000e+00
7.266156e-02 0.000000e+00 0.000000e+00
8.247593e-02 0.000000e+00 0.000000e+00
8.994775e-02 0.000000e+00 0.000000e+00
9.526580e-02 0.000000e+00 0.000000e+00
9.848578e-02 0.000000e+00 0.000000e+00
9.994552e-02 0.000000e+00 0.000000e+00
1.000834e-01 0.000000e+00 0.000000e+00
9.936873e-02 0.000000e+00 0.000000e+00
9.816250e-02 0.000000e+00 0.000000e+00
9.669799e-02 0.000000e+00 0.000000e+00
9.511616e-02 0.000000e+00 0.000000e+00
9.361632e-02 0.000000e+00 0.000000e+00
9.235563e-02 0.000000e+00 0.000000e+00
9.145836e-02 0.000000e+00 0.000000e+00
9.093834e-02 0.000000e+00 0.000000e+00
9.074671e-02 0.000000e+00 0.000000e+00
9.072269e-02 0.000000e+00 0.000000e+00
9.069136e-02 0.000000e+00 0.000000e+00
9.048808e-02 0.000000e+00 0.000000e+00
9.005557e-02 0.000000e+00 0.000000e+00
8.937319e-02 0.000000e+00 0.000000e+00
8.856199e-02 0.000000e+00 0.000000e+00
8.775971e-02 0.000000e+00 0.000000e+00
8.713261e-02 0.000000e+00 0.000000e+00
8.674843e-02 0.000000e+00 0.000000e+00
8.671702e-02 0.000000e+00 0.000000e+00
8.697123e-02 0.000000e+00 0.000000e+00
8.741385e-02 0.000000e+00 0.000000e+00
8.779383e-02 0.000000e+00 0.000000e+00
8.770890e-02 0.000000e+00 0.000000e+00
8.688429e-02 0.000000e+00 0.000000e+00
8.481986e-02 0.000000e+00 0.000000e+00
8.062524e-02 0.000000e+00 0.000000e+00
7.494808e-02 0.000000e+00 0.000000e+00
6.214593e-02 0.000000e+00 0.000000e+00
4.676162e-02 0.000000e+00 0.000000e+00
0.000000e+00 0.000000e+00 0.000000e+00
0.000000e+00 0.000000e+00 -2.511796e-02
1.136097e-02 0.000000e+00 -2.165995e-02
2.395724e-02 0.000000e+00 -1.734471e-02
3.522144e-02 0.000000e+00 -1.510554e-02
4.511288e-02 0.000000e+00 -1.268139e-02
5.297640e-02 0.000000e+00 -1.046991e-02
5.871686e-02 0.000000e+00 -8.212383e-03
6.214568e-02 0.000000e+00 -6.049512e-03
6.352186e-02 0.000000e+00 -4.111547e-03
6.322514e-02 0.000000e+00 -2.605306e-03
6.177398e-02 0.000000e+00 -1.591034e-03
5.966616e-02 0.000000e+00 -1.002552e-03
5.722279e-02 0.000000e+00 -6.863188e-04
5.458896e-02 0.000000e+00 -5.010880e-04
5.178540e-02 0.000000e+00 -4.276200e-04
4.883562e-02 0.000000e+00 -5.013272e-04
4.583418e-02 0.000000e+00 -7.085929e-04
4.285753e-02 0.000000e+00 -9.731692e-04
3.991171e-02 0.000000e+00 -1.237819e-03
3.704464e-02 0.000000e+00 -1.432908e-03
3.424671e-02 0.000000e+00 -1.528143e-03
3.162521e-02 0.000000e+00 -1.521914e-03
2.919176e-02 0.000000e+00 -1.465553e-03
2.706645e-02 0.000000e+00 -1.401479e-03
2.525013e-02 0.000000e+00 -1.387155e-03
2.382305e-02 0.000000e+00 -1.463178e-03
2.274237e-02 0.000000e+00 -1.686637e-03
2.225126e-02 0.000000e+00 -2.036618e-03
2.239902e-02 0.000000e+00 -2.498358e-03
2.337056e-02 0.000000e+00 -2.972646e-03
2.493604e-02 0.000000e+00 -3.332573e-03
2.702409e-02 0.000000e+00 -3.501592e-03
2.918294e-02 0.000000e+00 -3.337417e-03
3.126875e-02 0.000000e+00 -2.785003e-03
3.268893e-02 0.000000e+00 -2.036302e-03
3.332718e-02 0.000000e+00 -1.915007e-04
3.242997e-02 0.000000e+00 7.133284e-04
2.995056e-02 0.000000e+00 5.583870e-03
2.432055e-02 0.000000e+00 7.102691e-03
1.584755e-02 0.000000e+00 2.159437e-02
0.000000e+00 0.000000e+00 4.015464e-02
0.000000e+00 -2.047117e-13 -2.511796e-02
1.136097e-02 -2.108427e-13 -2.165995e-02
2.395724e-02 -1.630987e-13 -1.734471e-02
3.522144e-02 -1.039820e-13 -1.510554e-02
4.511288e-02 4.682195e-14 -1.268139e-02
5.297640e-02 3.761324e-13 -1.046991e-02
5.871686e-02 7.243312e-13 -8.212383e-03
6.214568e-02 1.001766e-12 -6.049512e-03
6.352186e-02 9.653691e-13 -4.111547e-03
6.322514e-02 8.049018e-13 -2.605306e-03
6.177398e-02 4.429408e-13 -1.591034e-03
5.966616e-02 9.601360e-15 -1.002552e-03
5.722279e-02 -2.386842e-13 -6.863188e-04
5.458896e-02 -3.889131e-13 -5.010880e-04
5.178540e-02 -2.070783e-13 -4.276200e-04
4.883562e-02 -2.144359e-13 -5.013272e-04
4.583418e-02 -2.300163e-13 -7.085929e-04
4.285753e-02 -1.928530e-13 -9.731692e-04
3.991171e-02 -2.120877e-13 -1.237819e-03
3.704464e-02 -1.383334e-13 -1.432908e-03
3.424671e-02 -9.064237e-15 -1.528143e-03
3.162521e-02 -8.537610e-14 -1.521914e-03
2.919176e-02 -5.813755e-14 -1.465553e-03
2.706645e-02 -2.336203e-13 -1.401479e-03
2.525013e-02 -2.355619e-13 -1.387155e-03
2.382305e-02 -4.268878e-13 -1.463178e-03
2.274237e-02 -5.069658e-13 -1.686637e-03
2.225126e-02 -4.172762e-13 -2.036618e-03
2.239902e-02 -2.834572e-13 -2.498358e-03
2.337056e-02 3.009503e-14 -2.972646e-03
2.493604e-02 2.789660e-13 -3.332573e-03
2.702409e-02 4.075095e-13 -3.501592e-03
2.918294e-02 3.449531e-13 -3.337417e-03
3.126875e-02 3.629308e-13 -2.785003e-03
3.268893e-02 1.787048e-13 -2.036302e-03
3.332718e-02 2.657333e-13 -1.915007e-04
3.242997e-02 9.360999e-14 7.133284e-04
2.995056e-02 1.921963e-13 5.583870e-03
2.432055e-02 -2.343025e-14 7.102691e-03
1.584755e-02 -4.238243e-14 2.159437e-02
0.000000e+00 -9.622933e-14 4.015464e-02
0.000000e+00 -3.041605e-13 -2.511796e-02
1.136097e-02 -3.263991e-13 -2.165995e-02
2.395724e-02 -2.672800e-13 -1.734471e-02
3.522144e-02 -1.913222e-13 -1.510554e-02
4.511288e-02 7.172383e-15 -1.268139e-02
5.297640e-02 4.548807e-13 -1.046991e-02
5.871686e-02 9.043344e-13 -8.212383e-03
6.214568e-02 1.274782e-12 -6.049512e-03
6.352186e-02 1.265188e-12 -4.111547e-03
6.322514e-02 1.064149e-12 -2.605306e-03
6.177398e-02 6.145865e-13 -1.591034e-03
5.966616e-02 5.670248e-14 -1.002552e-03
5.722279e-02 -2.301404e-13 -6.863188e-04
5.458896e-02 -4.581437e-13 -5.010880e-04
5.178540e-02 -2.243816e-13 -4.276200e-04
4.883562e-02 -2.671698e-13 -5.013272e-04
4.583418e-02 -2.996823e-13 -7.085929e-04
4.285753e-02 -2.682346e-13 -9.731692e-04
3.991171e-02 -2.753682e-13 -1.237819e-03
3.704464e-02 -1.900948e-13 -1.432908e-03
3.424671e-02 3.436298e-15 -1.528143e-03
3.162521e-02 -8.732001e-14 -1.521914e-03
2.919176e-02 4.070481e-14 -1.465553e-03
2.706645e-02 -1.702517e-13 -1.401479e-03
2.525013e-02 -7.369746e-14 -1.387155e-03
2.382305e-02 -2.847023e-13 -1.463178e-03
2.274237e-02 -3.567816e-13 -1.686637e-03
2.225126e-02 -3.836901e-13 -2.036618e-03
2.239902e-02 -3.547282e-13 -2.498358e-03
2.337056e-02 -1.701131e-13 -2.972646e-03
2.493604e-02 6.515402e-14 -3.332573e-03
2.702409e-02 2.628309e-13 -3.501592e-03
2.918294e-02 2.481984e-13 -3.337417e-03
3.126875e-02 3.910217e-13 -2.785003e-03
3.268893e-02 2.310341e-13 -2.036302e-03
3.332718e-02 3.314150e-13 -1.915007e-04
3.242997e-02 1.683751e-13 7.133284e-04
2.995056e-02 2.019339e-13 5.583870e-03
2.432055e-02 1.051185e-13 7.102691e-03
1.584755e-02 -5.635163e-14 2.159437e-02
0.000000e+00 -3.533963e-14 4.015464e-02
0.000000e+00 -2.168763e-13 -2.511796e-02
1.136097e-02 -2.506826e-13 -2.165995e-02
2.395724e-02 -2.250089e-13 -1.734471e-02
3.522144e-02 -1.741459e-13 -1.510554e-02
4.511288e-02 -5.609519e-14 -1.268139e-02
5.297640e-02 2.363969e-13 -1.046991e-02
5.871686e-02 4.909022e-13 -8.212383e-03
6.214568e-02 7.206966e-13 -6.049512e-03
6.352186e-02 7.640387e-13 -4.111547e-03
6.322514e-02 6.488420e-13 -2.605306e-03
6.177398e-02 4.213813e-13 -1.591034e-03
5.966616e-02 1.343270e-13 -1.002552e-03
5.722279e-02 1.379704e-14 -6.863188e-04
5.458896e-02 -2.005337e-13 -5.010880e-04
5.178540e-02 -4.421850e-14 -4.276200e-04
4.883562e-02 -1.450170e-13 -5.013272e-04
4.583418e-02 -2.006306e-13 -7.085929e-04
4.285753e-02 -1.640507e-13 -9.731692e-04
3.991171e-02 -2.011366e-13 -1.237819e-03
3.704464e-02 -1.345720e-13 -1.432908e-03
3.424671e-02 6.084366e-14 -1.528143e-03
3.162521e-02 -1.768880e-14 -1.521914e-03
2.919176e-02 1.599344e-13 -1.465553e-03
2.706645e-02 2.265916e-15 -1.401479e-03
2.525013e-02 1.762311e-13 -1.387155e-03
2.382305e-02 2.860896e-14 -1.463178e-03
2.274237e-02 -3.523658e-14 -1.686637e-03
2.225126e-02 -1.154479e-13 -2.036618e-03
2.239902e-02 -2.949036e-13 -2.498358e-03
2.337056e-02 -3.405202e-13 -2.972646e-03
2.493604e-02 -2.829568e-13 -3.332573e-03
2.702409e-02 -7.756777e-14 -3.501592e-03
2.918294e-02 -2.481129e-14 -3.337417e-03
3.126875e-02 2.580409e-13 -2.785003e-03
3.268893e-02 1.609942e-13 -2.036302e-03
3.332718e-02 3.330574e-13 -1.915007e-04
3.242997e-02 1.143725e-13 7.133284e-04
2.995056e-02 1.832702e-13 5.583870e-03
2.432055e-02 5.672516e-14 7.102691e-03
1.584755e-02 2.486109e-14 2.159437e-02
0.000000e+00 -8.800716e-15 4.015464e-02
0.000000e+00 -1.339304e-13 -2.511796e-02
1.136097e-02 -1.476036e-13 -2.165995e-02
2.395724e-02 -1.218955e-13 -1.734471e-02
3.522144e-02 -1.019007e-13 -1.510554e-02
4.511288e-02 -9.379870e-14 -1.268139e-02
5.297640e-02 -3.643316e-14 -1.046991e-02
5.871686e-02 -2.393240e-14 -8.212383e-03
6.214568e-02 9.384252e-15 -6.049512e-03
6.352186e-02 1.069348e-13 -4.111547e-03
6.322514e-02 1.009147e-13 -2.605306e-03
6.177398e-02 1.522968e-13 -1.591034e-03
5.966616e-02 1.622377e-13 -1.002552e-03
5.722279e-02 2.233843e-13 -6.863188e-04
5.458896e-02 6.978613e-14 -5.010880e-04
5.178540e-02 1.180108e-13 -4.276200e-04
4.883562e-02 -3.660807e-15 -5.013272e-04
4.583418e-02 -6.891018e-14 -7.085929e-04
4.285753e-02 -2.539254e-14 -9.731692e-04
3.991171e-02 -7.359031e-14 -1.237819e-03
3.704464e-02 -4.930654e-14 -1.432908e-03
3.424671e-02 9.384905e-14 -1.528143e-03
3.162521e-02 -9.933585e-15 -1.521914e-03
2.919176e-02 1.360611e-13 -1.465553e-03
2.706645e-02 -3.959921e-14 -1.401479e-03
2.525013e-02 1.144937e-13 -1.387155e-03
2.382305e-02 -4.376140e-14 -1.463178e-03
2.274237e-02 -9.352033e-14 -1.686637e-03
2.225126e-02 -1.568175e-13 -2.036618e-03
2.239902e-02 -2.591603e-13 -2.498358e-03
2.337056e-02 -2.660556e-13 -2.972646e-03
2.493604e-02 -2.096468e-13 -3.332573e-03
2.702409e-02 -8.543313e-14 -3.501592e-03
2.918294e-02 -6.335755e-14 -3.337417e-03
3.126875e-02 1.490213e-13 -2.785003e-03
3.268893e-02 9.229249e-14 -2.036302e-03
3.332718e-02 2.350058e-13 -1.915007e-04
3.242997e-02 1.012592e-13 7.133284e-04
2.995056e-02 1.404227e-13 5.583870e-03
2.432055e-02 7.325954e-14 7.102691e-03
1.584755e-02 2.199064e-14 2.159437e-02
0.000000e+00 2.833053e-14 4.015464e-02
0.000000e+00 -9.716773e-14 -2.511796e-02
1.136097e-02 -9.664098e-14 -2.165995e-02
2.395724e-02 -6.575907e-14 -1.734471e-02
3.522144e-02 -6.076327e-14 -1.510554e-02
4.511288e-02 -9.077455e-14 -1.268139e-02
5.297640e-02 -1.108323e-13 -1.046991e-02
5.871686e-02 -1.767181e-13 -8.212383e-03
6.214568e-02 -2.020924e-13 -6.049512e-03
6.352186e-02 -1.291055e-13 -4.111547e-03