# vtk DataFile Version 3.0
vtk output
ASCII
DATASET UNSTRUCTURED_GRID
POINTS 11767 float
0.000000e+00 0.000000e+00 0.000000e+00
1.460000e-02 0.000000e+00 0.000000e+00
2.920000e-02 0.000000e+00 0.000000e+00
4.380000e-02 0.000000e+00 0.000000e+00
5.840000e-02 0.000000e+00 0.000000e+00
7.300000e-02 0.000000e+00 0.000000e+00
8.760000e-02 0.000000e+00 0.000000e+00
1.022000e-01 0.000000e+00 0.000000e+00
1.168000e-01 0.000000e+00 0.000000e+00
1.314000e-01 0.000000e+00 0.000000e+00
1.460000e-01 0.000000e+00 0.000000e+00
1.606000e-01 0.000000e+00 0.000000e+00
1.752000e-01 0.000000e+00 0.000000e+00
1.898000e-01 0.000000e+00 0.000000e+00
2.044000e-01 0.000000e+00 0.000000e+00
2.190000e-01 0.000000e+00 0.000000e+00
2.336000e-01 0.000000e+00 0.000000e+00
2.482000e-01 0.000000e+00 0.000000e+00
2.628000e-01 0.000000e+00 0.000000e+00
2.774000e-01 0.000000e+00 0.000000e+00
2.920000e-01 0.000000e+00 0.000000e+00
3.066000e-01 0.000000e+00 0.000000e+00
3.212000e-01 0.000000e+00 0.000000e+00
3.358000e-01 0.000000e+00 0.000000e+00
3.504000e-01 0.000000e+00 0.000000e+00
3.650000e-01 0.000000e+00 0.000000e+00
3.796000e-01 0.000000e+00 0.000000e+00
3.942000e-01 0.000000e+00 0.000000e+00
4.088000e-01 0.000000e+00 0.000000e+00
4.234000e-01 0.000000e+00 0.000000e+00
4.380000e-01 0.000000e+00 0.000000e+00
4.526000e-01 0.000000e+00 0.000000e+00
4.672000e-01 0.000000e+00 0.000000e+00
4.818000e-01 0.000000e+00 0.000000e+00
4.964000e-01 0.000000e+00 0.000000e+00
5.110000e-01 0.000000e+00 0.000000e+00
5.256000e-01 0.000000e+00 0.000000e+00
5.402000e-01 0.000000e+00 0.000000e+00
5.548000e-01 0.000000e+00 0.000000e+00
5.694000e-01 0.000000e+00 0.000000e+00
5.840000e-01 0.000000e+00 0.000000e+00
0.000000e+00 1.460000e-02 0.000000e+00
1.460000e-02 1.460000e-02 0.000000e+00
2.920000e-02 1.460000e-02 0.000000e+00
4.380000e-02 1.460000e-02 0.000000e+00
5.840000e-02 1.460000e-02 0.000000e+00
7.300000e-02 1.460000e-02 0.000000e+00
8.760000e-02 1.460000e-02 0.000000e+00
1.022000e-01 1.460000e-02 0.000000e+00
1.168000e-01 1.460000e-02 0.000000e+00
1.314000e-01 1.460000e-02 0.000000e+00
1.460000e-01 1.460000e-02 0.000000e+00
1.606000e-01 1.460000e-02 0.000000e+00
1.752000e-01 1.460000e-02 0.000000e+00
1.898000e-01 1.460000e-02 0.000000e+00
2.044000e-01 1.460000e-02 0.000000e+00
2.190000e-01 1.460000e-02 0.000000e+00
2.336000e-01 1.460000e-02 0.000000e+00
2.482000e-01 1.460000e-02 0.000000e+00
2.628000e-01 1.460000e-02 0.000000e+00
2.774000e-01 1.460000e-02 0.000000e+00
2.920000e-01 1.460000e-02 0.000000e+00
3.066000e-01 1.460000e-02 0.000000e+00
3.212000e-01 1.460000e-02 0.000000e+00
3.358000e-01 1.460000e-02 0.000000e+00
3.504000e-01 1.460000e-02 0.000000e+00
3.650000e-01 1.460000e-02 0.000000e+00
3.796000e-01 1.460000e-02 0.000000e+00
3.942000e-01 1.460000e-02 0.000000e+00
4.088000e-01 1.460000e-02 0.000000e+00
4.234000e-01 1.460000e-02 0.000000e+00
4.380000e-01 1.460000e-02 0.000000e+00
4.526000e-01 1.460000e-02 0.000000e+00
4.672000e-01 1.460000e-02 0.000000e+00
4.818000e-01 1.460000e-02 0.000000e+00
4.964000e-01 1.460000e-02 0.000000e+00
5.110000e-01 1.460000e-02 0.000000e+00
5.256000e-01 1.460000e-02 0.000000e+00
5.402000e-01 1.460000e-02 0.000000e+00
5.548000e-01 1.460000e-02 0.000000e+00
5.694000e-01 1.460000e-02 0.000000e+00
5.840000e-01 1.460000e-02 0.000000e+00
0.000000e+00 2.920000e-02 0.000000e+00
1.460000e-02 2.920000e-02 0.000000e+00
2.920000e-02 2.920000e-02 0.000000e+00
4.380000e-02 2.920000e-02 0.000000e+00
5.840000e-02 2.920000e-02 0.000000e+00
7.300000e-02 2.920000e-02 0.000000e+00
8.760000e-02 2.920000e-02 0.000000e+00
1.022000e-01 2.920000e-02 0.000000e+00
1.168000e-01 2.920000e-02 0.000000e+00
1.314000e-01 2.920000e-02 0.000000e+00
1.460000e-01 2.920000e-02 0.000000e+00
1.606000e-01 2.920000e-02 0.000000e+00
1.752000e-01 2.920000e-02 0.000000e+00
1.898000e-01 2.920000e-02 0.000000e+00
2.044000e-01 2.920000e-02 0.000000e+00
2.190000e-01 2.920000e-02 0.000000e+00
2.336000e-01 2.920000e-02 0.000000e+00
2.482000e-01 2.920000e-02 0.000000e+00
2.628000e-01 2.920000e-02 0.000000e+00
2.774000e-01 2.920000e-02 0.000000e+00
2.920000e-01 2.920000e-02 0.000000e+00
3.066000e-01 2.920000e-02 0.000000e+00
3.212000e-01 2.920000e-02 0.000000e+00
3.358000e-01 2.920000e-02 0.000000e+00
3.504000e-01 2.920000e-02 0.000000e+00
3.650000e-01 2.920000e-02 0.000000e+00
3.796000e-01 2.920000e-02 0.000000e+00
3.942000e-01 2.920000e-02 0.000000e+00
4.088000e-01 2.920000e-02 0.000000e+00
4.234000e-01 2.920000e-02 0.000000e+00
4.380000e-01 2.920000e-02 0.000000e+00
4.526000e-01 2.920000e-02 0.000000e+00
4.672000e-01 2.920000e-02 0.000000e+00
4.818000e-01 2.920000e-02 0.000000e+00
4.964000e-01 2.920000e-02 0.000000e+00
5.110000e-01 2.920000e-02 0.000000e+00
5.256000e-01 2.920000e-02 0.000000e+00
5.402000e-01 2.920000e-02 0.000000e+00
5.548000e-01 2.920000e-02 0.000000e+00
5.694000e-01 2.920000e-02 0.000000e+00
5.840000e-01 2.920000e-02 0.000000e+00
0.000000e+00 4.380000e-02 0.000000e+00
1.460000e-02 4.380000e-02 0.000000e+00
2.920000e-02 4.380000e-02 0.000000e+00
4.380000e-02 4.380000e-02 0.000000e+00
5.840000e-02 4.380000e-02 0.000000e+00
7.300000e-02 4.380000e-02 0.000000e+00
8.760000e-02 4.380000e-02 0.000000e+00
1.022000e-01 4.380000e-02 0.000000e+00
1.168000e-01 4.380000e-02 0.000000e+00
1.314000e-01 4.380000e-02 0.000000e+00
1.460000e-01 4.380000e-02 0.000000e+00
1.606000e-01 4.380000e-02 0.000000e+00
1.752000e-01 4.380000e-02 0.000000e+00
1.898000e-01 4.380000e-02 0.000000e+00
2.044000e-01 4.380000e-02 0.000000e+00
2.190000e-01 4.380000e-02 0.000000e+00
2.336000e-01 4.380000e-02 0.000000e+00
2.482000e-01 4.380000e-02 0.000000e+00
2.628000e-01 4.380000e-02 0.000000e+00
2.774000e-01 4.380000e-02 0.000000e+00
2.920000e-01 4.380000e-02 0.000000e+00
3.066000e-01 4.380000e-02 0.000000e+00
3.212000e-01 4.380000e-02 0.000000e+00
3.358000e-01 4.380000e-02 0.000000e+00
3.504000e-01 4.380000e-02 0.000000e+00
3.650000e-01 4.380000e-02 0.000000e+00
3.796000e-01 4.380000e-02 0.000000e+00
3.942000e-01 4.380000e-02 0.000000e+00
4.088000e-01 4.380000e-02 0.000000e+00
4.234000e-01 4.380000e-02 0.000000e+00
4.380000e-01 4.380000e-02 0.000000e+00
4.526000e-01 4.380000e-02 0.000000e+00
4.672000e-01 4.380000e-02 0.000000e+00
4.818000e-01 4.380000e-02 0.000000e+00
4.964000e-01 4.380000e-02 0.000000e+00
5.110000e-01 4.380000e-02 0.000000e+00
5.256000e-01 4.380000e-02 0.000000e+00
5.402000e-01 4.380000e-02 0.000000e+00
5.548000e-01 4.380000e-02 0.000000e+00
5.694000e-01 4.380000e-02 0.000000e+00
5.840000e-01 4.380000e-02 0.000000e+00
0.000000e+00 5.840000e-02 0.000000e+00
1.460000e-02 5.840000e-02 0.000000e+00
2.920000e-02 5.840000e-02 0.000000e+00
4.380000e-02 5.840000e-02 0.000000e+00
5.840000e-02 5.840000e-02 0.000000e+00
7.300000e-02 5.840000e-02 0.000000e+00
8.760000e-02 5.840000e-02 0.000000e+00
1.022000e-01 5.840000e-02 0.000000e+00
1.168000e-01 5.840000e-02 0.000000e+00
1.314000e-01 5.840000e-02 0.000000e+00
1.460000e-01 5.840000e-02 0.000000e+00
1.606000e-01 5.840000e-02 0.000000e+00
1.752000e-01 5.840000e-02 0.000000e+00
1.898000e-01 5.840000e-02 0.000000e+00
2.044000e-01 5.840000e-02 0.000000e+00
2.190000e-01 5.840000e-02 0.000000e+00
2.336000e-01 5.840000e-02 0.000000e+00
2.482000e-01 5.840000e-02 0.000000e+00
2.628000e-01 5.840000e-02 0.000000e+00
2.774000e-01 5.840000e-02 0.000000e+00
2.920000e-01 5.840000e-02 0.000000e+00
3.066000e-01 5.840000e-02 0.000000e+00
3.212000e-01 5.840000e-02 0.000000e+00
3.358000e-01 5.840000e-02 0.000000e+00
3.504000e-01 5.840000e-02 0.000000e+00
3.650000e-01 5.840000e-02 0.000000e+00
3.796000e-01 5.840000e-02 0.000000e+00
3.942000e-01 5.840000e-02 0.000000e+00
4.088000e-01 5.840000e-02 0.000000e+00
4.234000e-01 5.840000e-02 0.000000e+00
4.380000e-01 5.840000e-02 0.000000e+00
4.526000e-01 5.840000e-02 0.000000e+00
4.672000e-01 5.840000e-02 0.000000e+00
4.818000e-01 5.840000e-02 0.000000e+00
4.964000e-01 5.840000e-02 0.000000e+00
5.110000e-01 5.840000e-02 0.000000e+00
5.256000e-01 5.840000e-02 0.000000e+00
5.402000e-01 5.840000e-02 0.000000e+00
5.548000e-01 5.840000e-02 0.000000e+00
5.694000e-01 5.840000e-02 0.000000e+00
5.840000e-01 5.840000e-02 0.000000e+00
0.000000e+00 7.300000e-02 0.000000e+00
1.460000e-02 7.300000e-02 0.000000e+00
2.920000e-02 7.300000e-02 0.000000e+00
4.380000e-02 7.300000e-02 0.000000e+00
5.840000e-02 7.300000e-02 0.000000e+00
7.300000e-02 7.300000e-02 0.000000e+00
8.760000e-02 7.300000e-02 0.000000e+00
1.022000e-01 7.300000e-02 0.000000e+00
1.168000e-01 7.300000e-02 0.000000e+00
1.314000e-01 7.300000e-02 0.000000e+00
1.460000e-01 7.300000e-02 0.000000e+00
1.606000e-01 7.300000e-02 0.000000e+00
1.752000e-01 7.300000e-02 0.000000e+00
1.898000e-01 7.300000e-02 0.000000e+00
2.044000e-01 7.300000e-02 0.000000e+00
2.190000e-01 7.300000e-02 0.000000e+00
2.336000e-01 7.300000e-02 0.000000e+00
2.482000e-01 7.300000e-02 0.000000e+00
2.628000e-01 7.300000e-02 0.000000e+00
2.774000e-01 7.300000e-02 0.000000e+00
2.920000e-01 7.300000e-02 0.000000e+00
3.066000e-01 7.300000e-02 0.000000e+00
3.212000e-01 7.300000e-02 0.000000e+00
3.358000e-01 7.300000e-02 0.000000e+00
3.504000e-01 7.300000e-02 0.000000e+00
3.650000e-01 7.300000e-02 0.000000e+00
3.796000e-01 7.300000e-02 0.000000e+00
3.942000e-01 7.300000e-02 0.000000e+00
4.088000e-01 7.300000e-02 0.000000e+00
4.234000e-01 7.300000e-02 0.000000e+00
4.380000e-01 7.300000e-02 0.000000e+00
4.526000e-01 7.300000e-02 0.000000e+00
4.672000e-01 7.300000e-02 0.000000e+00
4.818000e-01 7.300000e-02 0.000000e+00
4.964000e-01 7.300000e-02 0.000000e+00
5.110000e-01 7.300000e-02 0.000000e+00
5.256000e-01 7.300000e-02 0.000000e+00
5.402000e-01 7.300000e-02 0.000000e+00
5.548000e-01 7.300000e-02 0.000000e+00
5.694000e-01 7.300000e-02 0.000000e+00
5.840000e-01 7.300000e-02 0.000000e+00
0.000000e+00 8.760000e-02 0.000000e+00
1.460000e-02 8.760000e-02 0.000000e+00
2.920000e-02 8.760000e-02 0.000000e+00
4.380000e-02 8.760000e-02 0.000000e+00
5.840000e-02 8.760000e-02 0.000000e+00
7.300000e-02 8.760000e-02 0.000000e+00
8.760000e-02 8.760000e-02 0.000000e+00
1.022000e-01 8.760000e-02 0.000000e+00
[...]
POINT_DATA 11767
VECTORS Velocity float
0.000000e+00 0.000000e+00 0.000000e+00
7.309689e-03 0.000000e+00 0.000000e+00
4.432648e-03 0.000000e+00 0.000000e+00
4.712454e-04 0.000000e+00 0.000000e+00
-4.092516e-03 0.000000e+00 0.000000e+00
-7.025706e-03 0.000000e+00 0.000000e+00
-8.776618e-03 0.000000e+00 0.000000e+00
-9.210757e-03 0.000000e+00 0.000000e+00
-8.857561e-03 0.000000e+00 0.000000e+00
-7.925060e-03 0.000000e+00 0.000000e+00
-6.623043e-03 0.000000e+00 0.000000e+00
-4.932037e-03 0.000000e+00 0.000000e+00
-2.791280e-03 0.000000e+00 0.000000e+00
-1.745730e-05 0.000000e+00 0.000000e+00
3.562294e-03 0.000000e+00 0.000000e+00
8.205233e-03 0.000000e+00 0.000000e+00
1.348924e-02 0.000000e+00 0.000000e+00
1.895702e-02 0.000000e+00 0.000000e+00
2.492130e-02 0.000000e+00 0.000000e+00
3.112942e-02 0.000000e+00 0.000000e+00
3.757279e-02 0.000000e+00 0.000000e+00
4.405361e-02 0.000000e+00 0.000000e+00
5.035903e-02 0.000000e+00 0.000000e+00
5.622227e-02 0.000000e+00 0.000000e+00
6.140894e-02 0.000000e+00 0.000000e+00
6.593250e-02 0.000000e+00 0.000000e+00
6.984620e-02 0.000000e+00 0.000000e+00
7.342997e-02 0.000000e+00 0.000000e+00
7.679373e-02 0.000000e+00 0.000000e+00
8.014630e-02 0.000000e+00 0.000000e+00
8.334847e-02 0.000000e+00 0.000000e+00
8.623637e-02 0.000000e+00 0.000000e+00
8.842576e-02 0.000000e+00 0.000000e+00
8.947489e-02 0.000000e+00 0.000000e+00
8.927104e-02 0.000000e+00 0.000000e+00
8.766016e-02 0.000000e+00 0.000000e+00
8.365320e-02 0.000000e+00 0.000000e+00
7.829465e-02 0.000000e+00 0.000000e+00
6.528586e-02 0.000000e+00 0.000000e+00
4.951735e-02 0.000000e+00 0.000000e+00
0.000000e+00 0.000000e+00 0.000000e+00
0.000000e+00 7.368552e-16 0.000000e+00
7.309689e-03 -7.944866e-14 0.000000e+00
4.432648e-03 -7.850403e-15 0.000000e+00
4.712454e-04 5.586257e-14 0.000000e+00
-4.092516e-03 -4.888065e-15 0.000000e+00
-7.025706e-03 1.288833e-14 0.000000e+00
-8.776618e-03 5.066542e-14 0.000000e+00
-9.210757e-03 -3.744896e-15 0.000000e+00
-8.857561e-03 -4.785407e-14 0.000000e+00
-7.925060e-03 4.199569e-14 0.000000e+00
-6.623043e-03 -2.683872e-14 0.000000e+00
-4.932037e-03 -2.685628e-15 0.000000e+00
-2.791280e-03 4.933138e-14 0.000000e+00
-1.745730e-05 2.037179e-15 0.000000e+00
3.562294e-03 6.131404e-14 0.000000e+00
8.205233e-03 4.091632e-14 0.000000e+00
1.348924e-02 3.673962e-14 0.000000e+00
1.895702e-02 1.042929e-13 0.000000e+00
2.492130e-02 9.500463e-14 0.000000e+00
3.112942e-02 1.138549e-14 0.000000e+00
3.757279e-02 7.136335e-14 0.000000e+00
4.405361e-02 3.860357e-14 0.000000e+00
5.035903e-02 2.770272e-14 0.000000e+00
5.622227e-02 -1.307070e-14 0.000000e+00
6.140894e-02 -3.980843e-14 0.000000e+00
6.593250e-02 -3.338498e-14 0.000000e+00
6.984620e-02 -7.784777e-14 0.000000e+00
7.342997e-02 -2.727157e-14 0.000000e+00
7.679373e-02 -5.994516e-14 0.000000e+00
8.014630e-02 -3.161442e-15 0.000000e+00
8.334847e-02 3.037724e-14 0.000000e+00
8.623637e-02 1.349313e-13 0.000000e+00
8.842576e-02 1.062759e-13 0.000000e+00
8.947489e-02 1.185414e-13 0.000000e+00
8.927104e-02 6.789405e-14 0.000000e+00
8.766016e-02 9.982772e-14 0.000000e+00
8.365320e-02 3.883597e-14 0.000000e+00
7.829465e-02 1.197481e-13 0.000000e+00
6.528586e-02 5.185023e-15 0.000000e+00
4.951735e-02 1.283144e-14 0.000000e+00
0.000000e+00 -2.295883e-15 0.000000e+00
0.000000e+00 -1.226536e-13 0.000000e+00
7.309689e-03 8.047765e-14 0.000000e+00
4.432648e-03 -9.235531e-14 0.000000e+00
4.712454e-04 2.579675e-14 0.000000e+00
-4.092516e-03 -3.110652e-14 0.000000e+00
-7.025706e-03 8.045756e-16 0.000000e+00
-8.776618e-03 4.088894e-14 0.000000e+00
-9.210757e-03 -3.903724e-14 0.000000e+00
-8.857561e-03 -1.374638e-14 0.000000e+00
-7.925060e-03 -2.810132e-15 0.000000e+00
-6.623043e-03 9.437212e-15 0.000000e+00
-4.932037e-03 -6.334084e-14 0.000000e+00
-2.791280e-03 1.044055e-13 0.000000e+00
-1.745730e-05 -7.217972e-14 0.000000e+00
3.562294e-03 7.948076e-14 0.000000e+00
8.205233e-03 1.365529e-14 0.000000e+00
1.348924e-02 3.530313e-14 0.000000e+00
1.895702e-02 9.560904e-14 0.000000e+00
2.492130e-02 1.660564e-13 0.000000e+00
3.112942e-02 -2.076280e-14 0.000000e+00
3.757279e-02 1.051668e-13 0.000000e+00
4.405361e-02 1.873569e-15 0.000000e+00
5.035903e-02 3.385386e-14 0.000000e+00
5.622227e-02 -1.098152e-15 0.000000e+00
6.140894e-02 -5.968935e-14 0.000000e+00
6.593250e-02 -2.461247e-15 0.000000e+00
6.984620e-02 -4.401172e-14 0.000000e+00
7.342997e-02 -9.124220e-15 0.000000e+00
7.679373e-02 -4.064847e-14 0.000000e+00
8.014630e-02 5.095108e-14 0.000000e+00
8.334847e-02 5.930691e-14 0.000000e+00
8.623637e-02 1.544230e-13 0.000000e+00
8.842576e-02 2.028159e-13 0.000000e+00
8.947489e-02 2.173034e-13 0.000000e+00
8.927104e-02 1.948405e-13 0.000000e+00
8.766016e-02 1.557402e-13 0.000000e+00
8.365320e-02 1.760213e-13 0.000000e+00
7.829465e-02 1.669120e-13 0.000000e+00
6.528586e-02 1.321520e-13 0.000000e+00
4.951735e-02 8.806467e-15 0.000000e+00
0.000000e+00 -7.701259e-14 0.000000e+00
0.000000e+00 -3.925844e-14 0.000000e+00
7.309689e-03 1.153787e-14 0.000000e+00
4.432648e-03 -3.755063e-14 0.000000e+00
4.712454e-04 -3.859832e-14 0.000000e+00
-4.092516e-03 9.897546e-16 0.000000e+00
-7.025706e-03 1.142916e-14 0.000000e+00
-8.776618e-03 5.893361e-14 0.000000e+00
-9.210757e-03 -2.518385e-14 0.000000e+00
-8.857561e-03 -1.079158e-14 0.000000e+00
-7.925060e-03 1.744041e-14 0.000000e+00
-6.623043e-03 -9.641167e-15 0.000000e+00
-4.932037e-03 -5.075494e-14 0.000000e+00
-2.791280e-03 1.074079e-13 0.000000e+00
-1.745730e-05 -9.807961e-14 0.000000e+00
3.562294e-03 1.065081e-13 0.000000e+00
8.205233e-03 8.176137e-14 0.000000e+00
1.348924e-02 4.277970e-14 0.000000e+00
1.895702e-02 1.134838e-13 0.000000e+00
2.492130e-02 1.055740e-13 0.000000e+00
3.112942e-02 -6.416290e-14 0.000000e+00
3.757279e-02 1.089122e-13 0.000000e+00
4.405361e-02 1.572080e-16 0.000000e+00
5.035903e-02 1.906305e-14 0.000000e+00
5.622227e-02 7.979272e-14 0.000000e+00
6.140894e-02 -6.960241e-14 0.000000e+00
6.593250e-02 7.582040e-14 0.000000e+00
6.984620e-02 -2.431959e-14 0.000000e+00
7.342997e-02 4.635854e-14 0.000000e+00
7.679373e-02 4.743248e-14 0.000000e+00
8.014630e-02 8.758786e-14 0.000000e+00
8.334847e-02 4.739238e-14 0.000000e+00
8.623637e-02 1.654558e-13 0.000000e+00
8.842576e-02 2.052143e-13 0.000000e+00
8.947489e-02 2.725400e-13 0.000000e+00
8.927104e-02 2.506783e-13 0.000000e+00
8.766016e-02 2.077978e-13 0.000000e+00
8.365320e-02 2.261411e-13 0.000000e+00
7.829465e-02 2.241121e-13 0.000000e+00
6.528586e-02 1.505565e-13 0.000000e+00
4.951735e-02 9.536705e-14 0.000000e+00
0.000000e+00 -8.536004e-14 0.000000e+00
0.000000e+00 4.402711e-14 0.000000e+00
7.309689e-03 -8.088764e-14 0.000000e+00
4.432648e-03 1.151379e-14 0.000000e+00
4.712454e-04 -3.242284e-14 0.000000e+00
-4.092516e-03 2.715543e-14 0.000000e+00
-7.025706e-03 -2.110823e-14 0.000000e+00
-8.776618e-03 4.570438e-14 0.000000e+00
-9.210757e-03 -2.108223e-14 0.000000e+00
-8.857561e-03 -1.000059e-16 0.000000e+00
-7.925060e-03 3.681596e-14 0.000000e+00
-6.623043e-03 -7.054064e-15 0.000000e+00
-4.932037e-03 -2.586435e-14 0.000000e+00
-2.791280e-03 1.450784e-13 0.000000e+00
-1.745730e-05 -3.932478e-14 0.000000e+00
3.562294e-03 6.577019e-14 0.000000e+00
8.205233e-03 5.334268e-14 0.000000e+00
1.348924e-02 2.960059e-14 0.000000e+00
1.895702e-02 9.580380e-14 0.000000e+00
2.492130e-02 1.476043e-13 0.000000e+00
3.112942e-02 -6.053827e-14 0.000000e+00
3.757279e-02 1.263380e-13 0.000000e+00
4.405361e-02 -5.466281e-14 0.000000e+00
5.035903e-02 4.603405e-14 0.000000e+00
5.622227e-02 2.934623e-14 0.000000e+00
6.140894e-02 -3.893744e-14 0.000000e+00
6.593250e-02 4.654191e-14 0.000000e+00
6.984620e-02 -1.055389e-14 0.000000e+00
7.342997e-02 3.909350e-14 0.000000e+00
7.679373e-02 1.668939e-14 0.000000e+00
8.014630e-02 7.046963e-14 0.000000e+00
8.334847e-02 2.845571e-14 0.000000e+00
8.623637e-02 1.453689e-13 0.000000e+00
8.842576e-02 1.200203e-13 0.000000e+00
8.947489e-02 2.069302e-13 0.000000e+00
8.927104e-02 1.772977e-13 0.000000e+00
8.766016e-02 1.808933e-13 0.000000e+00
8.365320e-02 1.922531e-13 0.000000e+00
7.829465e-02 1.898010e-13 0.000000e+00
6.528586e-02 1.616671e-13 0.000000e+00
4.951735e-02 6.425141e-14 0.000000e+00
0.000000e+00 -7.789344e-14 0.000000e+00
0.000000e+00 -1.485453e-13 0.000000e+00
7.309689e-03 2.180175e-14 0.000000e+00
4.432648e-03 -3.932491e-14 0.000000e+00
4.712454e-04 -1.305385e-14 0.000000e+00
-4.092516e-03 8.893871e-15 0.000000e+00
-7.025706e-03 1.105435e-14 0.000000e+00
-8.776618e-03 1.766878e-14 0.000000e+00
-9.210757e-03 -2.664484e-14 0.000000e+00
-8.857561e-03 7.095460e-15 0.000000e+00
-7.925060e-03 8.534877e-15 0.000000e+00
-6.623043e-03 9.660791e-15 0.000000e+00
-4.932037e-03 -2.673679e-16 0.000000e+00
-2.791280e-03 9.210475e-14 0.000000e+00
-1.745730e-05 -5.615263e-14 0.000000e+00
3.562294e-03 6.692165e-14 0.000000e+00
8.205233e-03 2.528359e-14 0.000000e+00
1.348924e-02 -1.993947e-14 0.000000e+00
1.895702e-02 3.723571e-14 0.000000e+00
2.492130e-02 6.057359e-14 0.000000e+00
3.112942e-02 -2.771390e-14 0.000000e+00
3.757279e-02 7.572749e-14 0.000000e+00
4.405361e-02 -2.849448e-14 0.000000e+00
5.035903e-02 8.148697e-15 0.000000e+00
5.622227e-02 1.153745e-14 0.000000e+00
6.140894e-02 -6.305284e-14 0.000000e+00
6.593250e-02 2.218626e-14 0.000000e+00
6.984620e-02 -4.838799e-14 0.000000e+00
7.342997e-02 -1.500122e-14 0.000000e+00
7.679373e-02 -3.880880e-14 0.000000e+00
8.014630e-02 1.566097e-14 0.000000e+00
8.334847e-02 3.539283e-15 0.000000e+00
8.623637e-02 7.711822e-14 0.000000e+00
8.842576e-02 2.982822e-14 0.000000e+00
8.947489e-02 1.003042e-13 0.000000e+00
8.927104e-02 4.276572e-14 0.000000e+00
8.766016e-02 1.148776e-13 0.000000e+00
8.365320e-02 6.829485e-14 0.000000e+00
7.829465e-02 1.096163e-13 0.000000e+00
6.528586e-02 3.628514e-14 0.000000e+00
4.951735e-02 8.150138e-14 0.000000e+00
0.000000e+00 -3.544166e-14 0.000000e+00
0.000000e+00 0.000000e+00 0.000000e+00
7.309689e-03 0.000000e+00 0.000000e+00
4.432648e-03 0.000000e+00 0.000000e+00
4.712454e-04 0.000000e+00 0.000000e+00
-4.092516e-03 0.000000e+00 0.000000e+00
-7.025706e-03 0.000000e+00 0.000000e+00
-8.776618e-03 0.000000e+00 0.000000e+00
-9.210757e-03 0.000000e+00 0.000000e+00
-8.857561e-03 0.000000e+00 0.000000e+00
-7.925060e-03 0.000000e+00 0.000000e+00
-6.623043e-03 0.000000e+00 0.000000e+00
-4.932037e-03 0.000000e+00 0.000000e+00
-2.791280e-03 0.000000e+00 0.000000e+00
-1.745730e-05 0.000000e+00 0.000000e+00
3.562294e-03 0.000000e+00 0.000000e+00
8.205233e-03 0.000000e+00 0.000000e+00
1.348924e-02 0.000000e+00 0.000000e+00
1.895702e-02 0.000000e+00 0.000000e+00
2.492130e-02 0.000000e+00 0.000000e+00
3.112942e-02 0.000000e+00 0.000000e+00
3.757279e-02 0.000000e+00 0.000000e+00
4.405361e-02 0.000000e+00 0.000000e+00
5.035903e-02 0.000000e+00 0.000000e+00
5.622227e-02 0.000000e+00 0.000000e+00
6.140894e-02 0.000000e+00 0.000000e+00
6.593250e-02 0.000000e+00 0.000000e+00
6.984620e-02 0.000000e+00 0.000000e+00
7.342997e-02 0.000000e+00 0.000000e+00
7.679373e-02 0.000000e+00 0.000000e+00
8.014630e-02 0.000000e+00 0.000000e+00
8.334847e-02 0.000000e+00 0.000000e+00
8.623637e-02 0.000000e+00 0.000000e+00
8.842576e-02 0.000000e+00 0.000000e+00
8.947489e-02 0.000000e+00 0.000000e+00
8.927104e-02 0.000000e+00 0.000000e+00
8.766016e-02 0.000000e+00 0.000000e+00
8.365320e-02 0.000000e+00 0.000000e+00
7.829465e-02 0.000000e+00 0.000000e+00
6.528586e-02 0.000000e+00 0.000000e+00
4.951735e-02 0.000000e+00 0.000000e+00
0.000000e+00 0.000000e+00 0.000000e+00
0.000000e+00 0.000000e+00 -4.955848e-03
-1.171424e-02 0.000000e+00 -1.429313e-04
-2.139949e-02 0.000000e+00 3.763512e-03
-3.040033e-02 0.000000e+00 3.116238e-03
-3.713232e-02 0.000000e+00 2.176641e-03
-4.201360e-02 0.000000e+00 3.550216e-04
-4.483530e-02 0.000000e+00 -9.979373e-04
-4.640781e-02 0.000000e+00 -2.107520e-03
-4.699950e-02 0.000000e+00 -2.781043e-03
-4.705150e-02 0.000000e+00 -3.248023e-03
-4.664852e-02 0.000000e+00 -3.606416e-03
-4.595346e-02 0.000000e+00 -3.972374e-03
-4.497264e-02 0.000000e+00 -4.406061e-03
-4.381368e-02 0.000000e+00 -4.937287e-03
-4.240175e-02 0.000000e+00 -5.690755e-03
-4.068511e-02 0.000000e+00 -6.446098e-03
-3.855008e-02 0.000000e+00 -6.806801e-03
-3.588061e-02 0.000000e+00 -7.218590e-03
-3.263229e-02 0.000000e+00 -7.693764e-03
-2.879061e-02 0.000000e+00 -8.040490e-03
-2.434101e-02 0.000000e+00 -8.347355e-03
-1.936526e-02 0.000000e+00 -8.462372e-03
-1.399237e-02 0.000000e+00 -8.356970e-03
-8.492016e-03 0.000000e+00 -7.967539e-03
-3.099141e-03 0.000000e+00 -7.430175e-03
1.971915e-03 0.000000e+00 -6.876189e-03
6.709120e-03 0.000000e+00 -6.446582e-03
1.111578e-02 0.000000e+00 -6.191133e-03
1.537472e-02 0.000000e+00 -6.083272e-03
1.952574e-02 0.000000e+00 -6.065078e-03
2.378135e-02 0.000000e+00 -5.935207e-03
2.801752e-02 0.000000e+00 -5.636857e-03
3.216788e-02 0.000000e+00 -4.843562e-03
3.531442e-02 0.000000e+00 -3.556647e-03
3.697847e-02 0.000000e+00 -2.240974e-03
3.663513e-02 0.000000e+00 4.390201e-06
3.473009e-02 0.000000e+00 8.619007e-04
3.121269e-02 0.000000e+00 5.844735e-03
2.522694e-02 0.000000e+00 7.096873e-03
1.696048e-02 0.000000e+00 2.270368e-02
0.000000e+00 0.000000e+00 4.291448e-02
0.000000e+00 -1.024687e-13 -4.955848e-03
-1.171424e-02 -3.989916e-14 -1.429313e-04
-2.139949e-02 -1.141273e-14 3.763512e-03
-3.040033e-02 4.865640e-15 3.116238e-03
-3.713232e-02 -1.238305e-14 2.176641e-03
-4.201360e-02 9.688665e-17 3.550216e-04
-4.483530e-02 -3.173993e-14 -9.979373e-04
-4.640781e-02 -2.887944e-15 -2.107520e-03
-4.699950e-02 2.756479e-14 -2.781043e-03
-4.705150e-02 1.965385e-14 -3.248023e-03
-4.664852e-02 5.141076e-14 -3.606416e-03
-4.595346e-02 8.458088e-14 -3.972374e-03
-4.497264e-02 1.002981e-13 -4.406061e-03
-4.381368e-02 1.161047e-13 -4.937287e-03
-4.240175e-02 1.327007e-13 -5.690755e-03
-4.068511e-02 7.476865e-14 -6.446098e-03
-3.855008e-02 7.005363e-14 -6.806801e-03
-3.588061e-02 3.058833e-14 -7.218590e-03
-3.263229e-02 -7.830504e-14 -7.693764e-03
-2.879061e-02 -3.953423e-15 -8.040490e-03
-2.434101e-02 1.601191e-14 -8.347355e-03
-1.936526e-02 -3.756678e-14 -8.462372e-03
-1.399237e-02 -6.662463e-14 -8.356970e-03
-8.492016e-03 -1.453055e-13 -7.967539e-03
-3.099141e-03 -1.459792e-13 -7.430175e-03
1.971915e-03 -3.001951e-13 -6.876189e-03
6.709120e-03 -3.910698e-13 -6.446582e-03
1.111578e-02 -5.535211e-13 -6.191133e-03
1.537472e-02 -7.017436e-13 -6.083272e-03
1.952574e-02 -7.486806e-13 -6.065078e-03
2.378135e-02 -7.555541e-13 -5.935207e-03
2.801752e-02 -5.229404e-13 -5.636857e-03
3.216788e-02 -1.876395e-13 -4.843562e-03
3.531442e-02 3.377294e-13 -3.556647e-03
3.697847e-02 2.287790e-13 -2.240974e-03
3.663513e-02 1.518265e-13 4.390201e-06
3.473009e-02 -1.309963e-14 8.619007e-04
3.121269e-02 2.816849e-14 5.844735e-03
2.522694e-02 -1.400490e-13 7.096873e-03
1.696048e-02 1.761973e-13 2.270368e-02
0.000000e+00 -2.068748e-13 4.291448e-02
0.000000e+00 -1.450712e-13 -4.955848e-03
-1.171424e-02 -1.073015e-13 -1.429313e-04
-2.139949e-02 -8.065119e-14 3.763512e-03
-3.040033e-02 -2.860992e-14 3.116238e-03
-3.713232e-02 -1.025111e-14 2.176641e-03
-4.201360e-02 9.198398e-15 3.550216e-04
-4.483530e-02 -6.758304e-14 -9.979373e-04
-4.640781e-02 4.459926e-14 -2.107520e-03
-4.699950e-02 3.129586e-14 -2.781043e-03
-4.705150e-02 5.916273e-15 -3.248023e-03
-4.664852e-02 8.222846e-14 -3.606416e-03
-4.595346e-02 6.079025e-14 -3.972374e-03
-4.497264e-02 9.743042e-14 -4.406061e-03
-4.381368e-02 1.177424e-13 -4.937287e-03
-4.240175e-02 1.956786e-13 -5.690755e-03
-4.068511e-02 5.876870e-14 -6.446098e-03
-3.855008e-02 1.035207e-13 -6.806801e-03
-3.588061e-02 5.016217e-14 -7.218590e-03
-3.263229e-02 -3.644991e-14 -7.693764e-03
-2.879061e-02 4.282199e-14 -8.040490e-03
-2.434101e-02 3.244187e-14 -8.347355e-03
-1.936526e-02 -3.018202e-14 -8.462372e-03
-1.399237e-02 -2.498860e-14 -8.356970e-03
-8.492016e-03 -1.890627e-13 -7.967539e-03
-3.099141e-03 8.630417e-15 -7.430175e-03
1.971915e-03 -1.862441e-13 -6.876189e-03
6.709120e-03 -3.259714e-13 -6.446582e-03
1.111578e-02 -3.933323e-13 -6.191133e-03
1.537472e-02 -5.343214e-13 -6.083272e-03
1.952574e-02 -6.075420e-13 -6.065078e-03
2.378135e-02 -7.592715e-13 -5.935207e-03
2.801752e-02 -4.690974e-13 -5.636857e-03
3.216788e-02 -3.405386e-13 -4.843562e-03
3.531442e-02 1.017522e-13 -3.556647e-03
3.697847e-02 1.800629e-13 -2.240974e-03
3.663513e-02 1.091583e-13 4.390201e-06
3.473009e-02 -6.753941e-14 8.619007e-04
3.121269e-02 -5.587185e-14 5.844735e-03
2.522694e-02 -1.244971e-13 7.096873e-03
1.696048e-02 1.651843e-13 2.270368e-02
0.000000e+00 -2.653467e-13 4.291448e-02
0.000000e+00 -4.142466e-14 -4.955848e-03
-1.171424e-02 -7.291151e-14 -1.429313e-04
-2.139949e-02 -8.488357e-14 3.763512e-03
-3.040033e-02 -3.705683e-14 3.116238e-03
-3.713232e-02 -1.168857e-14 2.176641e-03
-4.201360e-02 7.717479e-15 3.550216e-04
-4.483530e-02 -8.090204e-14 -9.979373e-04
-4.640781e-02 4.373469e-14 -2.107520e-03
-4.699950e-02 -1.996394e-14 -2.781043e-03
-4.705150e-02 -2.823498e-14 -3.248023e-03
-4.664852e-02 5.498451e-14 -3.606416e-03
-4.595346e-02 1.529646e-14 -3.972374e-03
-4.497264e-02 3.642878e-14 -4.406061e-03
-4.381368e-02 8.050542e-14 -4.937287e-03
-4.240175e-02 2.024164e-13 -5.690755e-03
-4.068511e-02 3.960094e-14 -6.446098e-03
-3.855008e-02 1.354943e-13 -6.806801e-03
-3.588061e-02 3.477510e-14 -7.218590e-03
-3.263229e-02 -5.319807e-14 -7.693764e-03
-2.879061e-02 6.951292e-14 -8.040490e-03
-2.434101e-02 3.672924e-14 -8.347355e-03
-1.936526e-02 8.429848e-15 -8.462372e-03
-1.399237e-02 7.445539e-14 -8.356970e-03
-8.492016e-03 -9.320120e-14 -7.967539e-03
-3.099141e-03 7.936350e-14 -7.430175e-03
1.971915e-03 4.523580e-14 -6.876189e-03
6.709120e-03 -1.128521e-14 -6.446582e-03
1.111578e-02 7.152062e-14 -6.191133e-03
1.537472e-02 -1.806610e-13 -6.083272e-03
1.952574e-02 -1.796103e-13 -6.065078e-03
2.378135e-02 -2.419308e-13 -5.935207e-03
2.801752e-02 -2.043091e-13 -5.636857e-03
3.216788e-02 -4.233516e-13 -4.843562e-03
3.531442e-02 -2.017542e-13 -3.556647e-03
3.697847e-02 -7.775561e-14 -2.240974e-03
3.663513e-02 6.326374e-15 4.390201e-06
3.473009e-02 -1.390949e-13 8.619007e-04
3.121269e-02 -2.542649e-14 5.844735e-03
2.522694e-02 -2.063615e-13 7.096873e-03
1.696048e-02 1.728757e-13 2.270368e-02
0.000000e+00 -3.345775e-13 4.291448e-02
0.000000e+00 -7.017830e-14 -4.955848e-03
-1.171424e-02 -5.501775e-14 -1.429313e-04
-2.139949e-02 -2.302349e-14 3.763512e-03
-3.040033e-02 -4.860031e-14 3.116238e-03
-3.713232e-02 -1.997783e-14 2.176641e-03
-4.201360e-02 -2.986304e-14 3.550216e-04
-4.483530e-02 -7.633969e-14 -9.979373e-04
-4.640781e-02 2.692024e-14 -2.107520e-03
-4.699950e-02 -3.530936e-15 -2.781043e-03
-4.705150e-02 -3.078863e-14 -3.248023e-03
-4.664852e-02 3.343489e-14 -3.606416e-03
-4.595346e-02 1.881910e-14 -3.972374e-03
-4.497264e-02 2.041987e-14 -4.406061e-03
-4.381368e-02 4.289692e-14 -4.937287e-03
-4.240175e-02 1.259526e-13 -5.690755e-03
-4.068511e-02 1.211649e-15 -6.446098e-03
-3.855008e-02 7.297310e-14 -6.806801e-03
-3.588061e-02 5.802453e-14 -7.218590e-03
-3.263229e-02 -4.418124e-14 -7.693764e-03
-2.879061e-02 4.123085e-15 -8.040490e-03
-2.434101e-02 -5.477238e-14 -8.347355e-03
-1.936526e-02 -2.099572e-14 -8.462372e-03
-1.399237e-02 2.960706e-14 -8.356970e-03
-8.492016e-03 -1.334787e-13 -7.967539e-03
-3.099141e-03 1.289364e-13 -7.430175e-03
1.971915e-03 -4.252148e-14 -6.876189e-03
6.709120e-03 -8.060327e-14 -6.446582e-03
1.111578e-02 -9.286899e-14 -6.191133e-03
1.537472e-02 -2.135402e-13 -6.083272e-03
1.952574e-02 -2.597473e-13 -6.065078e-03
2.378135e-02 -3.479938e-13 -5.935207e-03
2.801752e-02 -2.702884e-13 -5.636857e-03
3.216788e-02 -3.591815e-13 -4.843562e-03
3.531442e-02 -1.254549e-13 -3.556647e-03
3.697847e-02 -4.801281e-14 -2.240974e-03
3.663513e-02 9.876979e-15 4.390201e-06
3.473009e-02 -9.825153e-14 8.619007e-04
3.121269e-02 9.857930e-15 5.844735e-03
2.522694e-02 -1.506136e-13 7.096873e-03
1.696048e-02 1.421645e-13 2.270368e-02
0.000000e+00 -1.911782e-13 4.291448e-02
0.000000e+00 -4.317699e-15 -4.955848e-03
-1.171424e-02 -6.813013e-14 -1.429313e-04
-2.139949e-02 -5.436307e-14 3.763512e-03
-3.040033e-02 -2.181198e-14 3.116238e-03
-3.713232e-02 -3.556968e-14 2.176641e-03
-4.201360e-02 -1.060872e-14 3.550216e-04