# vtk DataFile Version 3.0
vtk output
ASCII
DATASET UNSTRUCTURED_GRID
POINTS 11767 float
0.000000e+00 0.000000e+00 0.000000e+00
1.460000e-02 0.000000e+00 0.000000e+00
2.920000e-02 0.000000e+00 0.000000e+00
4.380000e-02 0.000000e+00 0.000000e+00
5.840000e-02 0.000000e+00 0.000000e+00
7.300000e-02 0.000000e+00 0.000000e+00
8.760000e-02 0.000000e+00 0.000000e+00
1.022000e-01 0.000000e+00 0.000000e+00
1.168000e-01 0.000000e+00 0.000000e+00
1.314000e-01 0.000000e+00 0.000000e+00
1.460000e-01 0.000000e+00 0.000000e+00
1.606000e-01 0.000000e+00 0.000000e+00
1.752000e-01 0.000000e+00 0.000000e+00
1.898000e-01 0.000000e+00 0.000000e+00
2.044000e-01 0.000000e+00 0.000000e+00
2.190000e-01 0.000000e+00 0.000000e+00
2.336000e-01 0.000000e+00 0.000000e+00
2.482000e-01 0.000000e+00 0.000000e+00
2.628000e-01 0.000000e+00 0.000000e+00
2.774000e-01 0.000000e+00 0.000000e+00
2.920000e-01 0.000000e+00 0.000000e+00
3.066000e-01 0.000000e+00 0.000000e+00
3.212000e-01 0.000000e+00 0.000000e+00
3.358000e-01 0.000000e+00 0.000000e+00
3.504000e-01 0.000000e+00 0.000000e+00
3.650000e-01 0.000000e+00 0.000000e+00
3.796000e-01 0.000000e+00 0.000000e+00
3.942000e-01 0.000000e+00 0.000000e+00
4.088000e-01 0.000000e+00 0.000000e+00
4.234000e-01 0.000000e+00 0.000000e+00
4.380000e-01 0.000000e+00 0.000000e+00
4.526000e-01 0.000000e+00 0.000000e+00
4.672000e-01 0.000000e+00 0.000000e+00
4.818000e-01 0.000000e+00 0.000000e+00
4.964000e-01 0.000000e+00 0.000000e+00
5.110000e-01 0.000000e+00 0.000000e+00
5.256000e-01 0.000000e+00 0.000000e+00
5.402000e-01 0.000000e+00 0.000000e+00
5.548000e-01 0.000000e+00 0.000000e+00
5.694000e-01 0.000000e+00 0.000000e+00
5.840000e-01 0.000000e+00 0.000000e+00
0.000000e+00 1.460000e-02 0.000000e+00
1.460000e-02 1.460000e-02 0.000000e+00
2.920000e-02 1.460000e-02 0.000000e+00
4.380000e-02 1.460000e-02 0.000000e+00
5.840000e-02 1.460000e-02 0.000000e+00
7.300000e-02 1.460000e-02 0.000000e+00
8.760000e-02 1.460000e-02 0.000000e+00
1.022000e-01 1.460000e-02 0.000000e+00
1.168000e-01 1.460000e-02 0.000000e+00
1.314000e-01 1.460000e-02 0.000000e+00
1.460000e-01 1.460000e-02 0.000000e+00
1.606000e-01 1.460000e-02 0.000000e+00
1.752000e-01 1.460000e-02 0.000000e+00
1.898000e-01 1.460000e-02 0.000000e+00
2.044000e-01 1.460000e-02 0.000000e+00
2.190000e-01 1.460000e-02 0.000000e+00
2.336000e-01 1.460000e-02 0.000000e+00
2.482000e-01 1.460000e-02 0.000000e+00
2.628000e-01 1.460000e-02 0.000000e+00
2.774000e-01 1.460000e-02 0.000000e+00
2.920000e-01 1.460000e-02 0.000000e+00
3.066000e-01 1.460000e-02 0.000000e+00
3.212000e-01 1.460000e-02 0.000000e+00
3.358000e-01 1.460000e-02 0.000000e+00
3.504000e-01 1.460000e-02 0.000000e+00
3.650000e-01 1.460000e-02 0.000000e+00
3.796000e-01 1.460000e-02 0.000000e+00
3.942000e-01 1.460000e-02 0.000000e+00
4.088000e-01 1.460000e-02 0.000000e+00
4.234000e-01 1.460000e-02 0.000000e+00
4.380000e-01 1.460000e-02 0.000000e+00
4.526000e-01 1.460000e-02 0.000000e+00
4.672000e-01 1.460000e-02 0.000000e+00
4.818000e-01 1.460000e-02 0.000000e+00
4.964000e-01 1.460000e-02 0.000000e+00
5.110000e-01 1.460000e-02 0.000000e+00
5.256000e-01 1.460000e-02 0.000000e+00
5.402000e-01 1.460000e-02 0.000000e+00
5.548000e-01 1.460000e-02 0.000000e+00
5.694000e-01 1.460000e-02 0.000000e+00
5.840000e-01 1.460000e-02 0.000000e+00
0.000000e+00 2.920000e-02 0.000000e+00
1.460000e-02 2.920000e-02 0.000000e+00
2.920000e-02 2.920000e-02 0.000000e+00
4.380000e-02 2.920000e-02 0.000000e+00
5.840000e-02 2.920000e-02 0.000000e+00
7.300000e-02 2.920000e-02 0.000000e+00
8.760000e-02 2.920000e-02 0.000000e+00
1.022000e-01 2.920000e-02 0.000000e+00
1.168000e-01 2.920000e-02 0.000000e+00
1.314000e-01 2.920000e-02 0.000000e+00
1.460000e-01 2.920000e-02 0.000000e+00
1.606000e-01 2.920000e-02 0.000000e+00
1.752000e-01 2.920000e-02 0.000000e+00
1.898000e-01 2.920000e-02 0.000000e+00
2.044000e-01 2.920000e-02 0.000000e+00
2.190000e-01 2.920000e-02 0.000000e+00
2.336000e-01 2.920000e-02 0.000000e+00
2.482000e-01 2.920000e-02 0.000000e+00
2.628000e-01 2.920000e-02 0.000000e+00
2.774000e-01 2.920000e-02 0.000000e+00
2.920000e-01 2.920000e-02 0.000000e+00
3.066000e-01 2.920000e-02 0.000000e+00
3.212000e-01 2.920000e-02 0.000000e+00
3.358000e-01 2.920000e-02 0.000000e+00
3.504000e-01 2.920000e-02 0.000000e+00
3.650000e-01 2.920000e-02 0.000000e+00
3.796000e-01 2.920000e-02 0.000000e+00
3.942000e-01 2.920000e-02 0.000000e+00
4.088000e-01 2.920000e-02 0.000000e+00
4.234000e-01 2.920000e-02 0.000000e+00
4.380000e-01 2.920000e-02 0.000000e+00
4.526000e-01 2.920000e-02 0.000000e+00
4.672000e-01 2.920000e-02 0.000000e+00
4.818000e-01 2.920000e-02 0.000000e+00
4.964000e-01 2.920000e-02 0.000000e+00
5.110000e-01 2.920000e-02 0.000000e+00
5.256000e-01 2.920000e-02 0.000000e+00
5.402000e-01 2.920000e-02 0.000000e+00
5.548000e-01 2.920000e-02 0.000000e+00
5.694000e-01 2.920000e-02 0.000000e+00
5.840000e-01 2.920000e-02 0.000000e+00
0.000000e+00 4.380000e-02 0.000000e+00
1.460000e-02 4.380000e-02 0.000000e+00
2.920000e-02 4.380000e-02 0.000000e+00
4.380000e-02 4.380000e-02 0.000000e+00
5.840000e-02 4.380000e-02 0.000000e+00
7.300000e-02 4.380000e-02 0.000000e+00
8.760000e-02 4.380000e-02 0.000000e+00
1.022000e-01 4.380000e-02 0.000000e+00
1.168000e-01 4.380000e-02 0.000000e+00
1.314000e-01 4.380000e-02 0.000000e+00
1.460000e-01 4.380000e-02 0.000000e+00
1.606000e-01 4.380000e-02 0.000000e+00
1.752000e-01 4.380000e-02 0.000000e+00
1.898000e-01 4.380000e-02 0.000000e+00
2.044000e-01 4.380000e-02 0.000000e+00
2.190000e-01 4.380000e-02 0.000000e+00
2.336000e-01 4.380000e-02 0.000000e+00
2.482000e-01 4.380000e-02 0.000000e+00
2.628000e-01 4.380000e-02 0.000000e+00
2.774000e-01 4.380000e-02 0.000000e+00
2.920000e-01 4.380000e-02 0.000000e+00
3.066000e-01 4.380000e-02 0.000000e+00
3.212000e-01 4.380000e-02 0.000000e+00
3.358000e-01 4.380000e-02 0.000000e+00
3.504000e-01 4.380000e-02 0.000000e+00
3.650000e-01 4.380000e-02 0.000000e+00
3.796000e-01 4.380000e-02 0.000000e+00
3.942000e-01 4.380000e-02 0.000000e+00
4.088000e-01 4.380000e-02 0.000000e+00
4.234000e-01 4.380000e-02 0.000000e+00
4.380000e-01 4.380000e-02 0.000000e+00
4.526000e-01 4.380000e-02 0.000000e+00
4.672000e-01 4.380000e-02 0.000000e+00
4.818000e-01 4.380000e-02 0.000000e+00
4.964000e-01 4.380000e-02 0.000000e+00
5.110000e-01 4.380000e-02 0.000000e+00
5.256000e-01 4.380000e-02 0.000000e+00
5.402000e-01 4.380000e-02 0.000000e+00
5.548000e-01 4.380000e-02 0.000000e+00
5.694000e-01 4.380000e-02 0.000000e+00
5.840000e-01 4.380000e-02 0.000000e+00
0.000000e+00 5.840000e-02 0.000000e+00
1.460000e-02 5.840000e-02 0.000000e+00
2.920000e-02 5.840000e-02 0.000000e+00
4.380000e-02 5.840000e-02 0.000000e+00
5.840000e-02 5.840000e-02 0.000000e+00
7.300000e-02 5.840000e-02 0.000000e+00
8.760000e-02 5.840000e-02 0.000000e+00
1.022000e-01 5.840000e-02 0.000000e+00
1.168000e-01 5.840000e-02 0.000000e+00
1.314000e-01 5.840000e-02 0.000000e+00
1.460000e-01 5.840000e-02 0.000000e+00
1.606000e-01 5.840000e-02 0.000000e+00
1.752000e-01 5.840000e-02 0.000000e+00
1.898000e-01 5.840000e-02 0.000000e+00
2.044000e-01 5.840000e-02 0.000000e+00
2.190000e-01 5.840000e-02 0.000000e+00
2.336000e-01 5.840000e-02 0.000000e+00
2.482000e-01 5.840000e-02 0.000000e+00
2.628000e-01 5.840000e-02 0.000000e+00
2.774000e-01 5.840000e-02 0.000000e+00
2.920000e-01 5.840000e-02 0.000000e+00
3.066000e-01 5.840000e-02 0.000000e+00
3.212000e-01 5.840000e-02 0.000000e+00
3.358000e-01 5.840000e-02 0.000000e+00
3.504000e-01 5.840000e-02 0.000000e+00
3.650000e-01 5.840000e-02 0.000000e+00
3.796000e-01 5.840000e-02 0.000000e+00
3.942000e-01 5.840000e-02 0.000000e+00
4.088000e-01 5.840000e-02 0.000000e+00
4.234000e-01 5.840000e-02 0.000000e+00
4.380000e-01 5.840000e-02 0.000000e+00
4.526000e-01 5.840000e-02 0.000000e+00
4.672000e-01 5.840000e-02 0.000000e+00
4.818000e-01 5.840000e-02 0.000000e+00
4.964000e-01 5.840000e-02 0.000000e+00
5.110000e-01 5.840000e-02 0.000000e+00
5.256000e-01 5.840000e-02 0.000000e+00
5.402000e-01 5.840000e-02 0.000000e+00
5.548000e-01 5.840000e-02 0.000000e+00
5.694000e-01 5.840000e-02 0.000000e+00
5.840000e-01 5.840000e-02 0.000000e+00
0.000000e+00 7.300000e-02 0.000000e+00
1.460000e-02 7.300000e-02 0.000000e+00
2.920000e-02 7.300000e-02 0.000000e+00
4.380000e-02 7.300000e-02 0.000000e+00
5.840000e-02 7.300000e-02 0.000000e+00
7.300000e-02 7.300000e-02 0.000000e+00
8.760000e-02 7.300000e-02 0.000000e+00
1.022000e-01 7.300000e-02 0.000000e+00
1.168000e-01 7.300000e-02 0.000000e+00
1.314000e-01 7.300000e-02 0.000000e+00
1.460000e-01 7.300000e-02 0.000000e+00
1.606000e-01 7.300000e-02 0.000000e+00
1.752000e-01 7.300000e-02 0.000000e+00
1.898000e-01 7.300000e-02 0.000000e+00
2.044000e-01 7.300000e-02 0.000000e+00
2.190000e-01 7.300000e-02 0.000000e+00
2.336000e-01 7.300000e-02 0.000000e+00
2.482000e-01 7.300000e-02 0.000000e+00
2.628000e-01 7.300000e-02 0.000000e+00
2.774000e-01 7.300000e-02 0.000000e+00
2.920000e-01 7.300000e-02 0.000000e+00
3.066000e-01 7.300000e-02 0.000000e+00
3.212000e-01 7.300000e-02 0.000000e+00
3.358000e-01 7.300000e-02 0.000000e+00
3.504000e-01 7.300000e-02 0.000000e+00
3.650000e-01 7.300000e-02 0.000000e+00
3.796000e-01 7.300000e-02 0.000000e+00
3.942000e-01 7.300000e-02 0.000000e+00
4.088000e-01 7.300000e-02 0.000000e+00
4.234000e-01 7.300000e-02 0.000000e+00
4.380000e-01 7.300000e-02 0.000000e+00
4.526000e-01 7.300000e-02 0.000000e+00
4.672000e-01 7.300000e-02 0.000000e+00
4.818000e-01 7.300000e-02 0.000000e+00
4.964000e-01 7.300000e-02 0.000000e+00
5.110000e-01 7.300000e-02 0.000000e+00
5.256000e-01 7.300000e-02 0.000000e+00
5.402000e-01 7.300000e-02 0.000000e+00
5.548000e-01 7.300000e-02 0.000000e+00
5.694000e-01 7.300000e-02 0.000000e+00
5.840000e-01 7.300000e-02 0.000000e+00
0.000000e+00 8.760000e-02 0.000000e+00
1.460000e-02 8.760000e-02 0.000000e+00
2.920000e-02 8.760000e-02 0.000000e+00
4.380000e-02 8.760000e-02 0.000000e+00
5.840000e-02 8.760000e-02 0.000000e+00
7.300000e-02 8.760000e-02 0.000000e+00
8.760000e-02 8.760000e-02 0.000000e+00
1.022000e-01 8.760000e-02 0.000000e+00
[...]
POINT_DATA 11767
VECTORS Velocity float
0.000000e+00 0.000000e+00 0.000000e+00
1.840249e-02 0.000000e+00 0.000000e+00
3.158370e-02 0.000000e+00 0.000000e+00
4.235888e-02 0.000000e+00 0.000000e+00
5.136565e-02 0.000000e+00 0.000000e+00
5.929176e-02 0.000000e+00 0.000000e+00
6.625652e-02 0.000000e+00 0.000000e+00
7.249770e-02 0.000000e+00 0.000000e+00
7.811002e-02 0.000000e+00 0.000000e+00
8.330115e-02 0.000000e+00 0.000000e+00
8.827700e-02 0.000000e+00 0.000000e+00
9.330929e-02 0.000000e+00 0.000000e+00
9.862344e-02 0.000000e+00 0.000000e+00
1.043686e-01 0.000000e+00 0.000000e+00
1.105122e-01 0.000000e+00 0.000000e+00
1.168759e-01 0.000000e+00 0.000000e+00
1.231757e-01 0.000000e+00 0.000000e+00
1.291168e-01 0.000000e+00 0.000000e+00
1.344024e-01 0.000000e+00 0.000000e+00
1.388152e-01 0.000000e+00 0.000000e+00
1.422405e-01 0.000000e+00 0.000000e+00
1.446629e-01 0.000000e+00 0.000000e+00
1.460428e-01 0.000000e+00 0.000000e+00
1.464333e-01 0.000000e+00 0.000000e+00
1.458298e-01 0.000000e+00 0.000000e+00
1.442856e-01 0.000000e+00 0.000000e+00
1.417656e-01 0.000000e+00 0.000000e+00
1.383896e-01 0.000000e+00 0.000000e+00
1.342174e-01 0.000000e+00 0.000000e+00
1.295047e-01 0.000000e+00 0.000000e+00
1.243932e-01 0.000000e+00 0.000000e+00
1.192043e-01 0.000000e+00 0.000000e+00
1.141287e-01 0.000000e+00 0.000000e+00
1.092586e-01 0.000000e+00 0.000000e+00
1.043347e-01 0.000000e+00 0.000000e+00
9.881462e-02 0.000000e+00 0.000000e+00
9.135229e-02 0.000000e+00 0.000000e+00
8.279527e-02 0.000000e+00 0.000000e+00
6.723335e-02 0.000000e+00 0.000000e+00
4.938446e-02 0.000000e+00 0.000000e+00
0.000000e+00 0.000000e+00 0.000000e+00
0.000000e+00 -4.512670e-13 0.000000e+00
1.840249e-02 -2.862025e-13 0.000000e+00
3.158370e-02 -2.233300e-13 0.000000e+00
4.235888e-02 -3.888349e-13 0.000000e+00
5.136565e-02 -5.774725e-13 0.000000e+00
5.929176e-02 -5.712630e-13 0.000000e+00
6.625652e-02 -8.370144e-13 0.000000e+00
7.249770e-02 -7.449956e-13 0.000000e+00
7.811002e-02 -7.867583e-13 0.000000e+00
8.330115e-02 -8.971012e-13 0.000000e+00
8.827700e-02 -8.433026e-13 0.000000e+00
9.330929e-02 -7.699546e-13 0.000000e+00
9.862344e-02 -4.099125e-13 0.000000e+00
1.043686e-01 -4.924193e-13 0.000000e+00
1.105122e-01 -2.398017e-13 0.000000e+00
1.168759e-01 -7.698674e-14 0.000000e+00
1.231757e-01 7.903132e-15 0.000000e+00
1.291168e-01 1.129811e-13 0.000000e+00
1.344024e-01 1.128720e-14 0.000000e+00
1.388152e-01 1.558484e-13 0.000000e+00
1.422405e-01 6.192618e-14 0.000000e+00
1.446629e-01 1.657183e-13 0.000000e+00
1.460428e-01 -5.321398e-14 0.000000e+00
1.464333e-01 -5.449837e-14 0.000000e+00
1.458298e-01 -1.409899e-13 0.000000e+00
1.442856e-01 -2.081100e-14 0.000000e+00
1.417656e-01 8.203013e-15 0.000000e+00
1.383896e-01 1.478414e-13 0.000000e+00
1.342174e-01 2.096108e-13 0.000000e+00
1.295047e-01 1.497089e-13 0.000000e+00
1.243932e-01 1.473028e-13 0.000000e+00
1.192043e-01 -3.571773e-14 0.000000e+00
1.141287e-01 -2.099552e-13 0.000000e+00
1.092586e-01 -8.001208e-14 0.000000e+00
1.043347e-01 -1.882333e-13 0.000000e+00
9.881462e-02 6.013167e-14 0.000000e+00
9.135229e-02 -8.784739e-14 0.000000e+00
8.279527e-02 6.668464e-14 0.000000e+00
6.723335e-02 5.392440e-15 0.000000e+00
4.938446e-02 3.607083e-13 0.000000e+00
0.000000e+00 2.769871e-13 0.000000e+00
0.000000e+00 -5.158036e-13 0.000000e+00
1.840249e-02 -1.435299e-13 0.000000e+00
3.158370e-02 -2.809451e-13 0.000000e+00
4.235888e-02 -5.364162e-13 0.000000e+00
5.136565e-02 -8.067543e-13 0.000000e+00
5.929176e-02 -9.018472e-13 0.000000e+00
6.625652e-02 -1.156171e-12 0.000000e+00
7.249770e-02 -1.185173e-12 0.000000e+00
7.811002e-02 -1.209444e-12 0.000000e+00
8.330115e-02 -1.345742e-12 0.000000e+00
8.827700e-02 -1.246381e-12 0.000000e+00
9.330929e-02 -1.035476e-12 0.000000e+00
9.862344e-02 -5.551376e-13 0.000000e+00
1.043686e-01 -7.114915e-13 0.000000e+00
1.105122e-01 -3.510452e-13 0.000000e+00
1.168759e-01 -5.718681e-14 0.000000e+00
1.231757e-01 7.271126e-14 0.000000e+00
1.291168e-01 1.520740e-13 0.000000e+00
1.344024e-01 4.921649e-14 0.000000e+00
1.388152e-01 1.946491e-13 0.000000e+00
1.422405e-01 1.471300e-13 0.000000e+00
1.446629e-01 3.020766e-13 0.000000e+00
1.460428e-01 5.443848e-14 0.000000e+00
1.464333e-01 8.189111e-14 0.000000e+00
1.458298e-01 -1.322385e-13 0.000000e+00
1.442856e-01 7.505360e-14 0.000000e+00
1.417656e-01 -2.783086e-14 0.000000e+00
1.383896e-01 1.322687e-13 0.000000e+00
1.342174e-01 2.103921e-13 0.000000e+00
1.295047e-01 1.957189e-13 0.000000e+00
1.243932e-01 2.577982e-13 0.000000e+00
1.192043e-01 -4.676870e-14 0.000000e+00
1.141287e-01 -2.622508e-13 0.000000e+00
1.092586e-01 -7.028435e-14 0.000000e+00
1.043347e-01 -1.774461e-13 0.000000e+00
9.881462e-02 1.433711e-15 0.000000e+00
9.135229e-02 -5.567283e-15 0.000000e+00
8.279527e-02 7.080061e-14 0.000000e+00
6.723335e-02 5.094434e-14 0.000000e+00
4.938446e-02 3.797580e-13 0.000000e+00
0.000000e+00 6.706902e-13 0.000000e+00
0.000000e+00 -6.613928e-13 0.000000e+00
1.840249e-02 -9.270091e-14 0.000000e+00
3.158370e-02 -3.772536e-13 0.000000e+00
4.235888e-02 -3.928489e-13 0.000000e+00
5.136565e-02 -6.309143e-13 0.000000e+00
5.929176e-02 -8.980382e-13 0.000000e+00
6.625652e-02 -9.254443e-13 0.000000e+00
7.249770e-02 -1.173223e-12 0.000000e+00
7.811002e-02 -1.040269e-12 0.000000e+00
8.330115e-02 -1.149765e-12 0.000000e+00
8.827700e-02 -9.655388e-13 0.000000e+00
9.330929e-02 -8.009691e-13 0.000000e+00
9.862344e-02 -2.873648e-13 0.000000e+00
1.043686e-01 -5.398225e-13 0.000000e+00
1.105122e-01 -2.344222e-13 0.000000e+00
1.168759e-01 7.615304e-14 0.000000e+00
1.231757e-01 1.102393e-13 0.000000e+00
1.291168e-01 2.765868e-13 0.000000e+00
1.344024e-01 7.827624e-15 0.000000e+00
1.388152e-01 2.518419e-13 0.000000e+00
1.422405e-01 1.415598e-13 0.000000e+00
1.446629e-01 3.911755e-13 0.000000e+00
1.460428e-01 1.208533e-13 0.000000e+00
1.464333e-01 2.344314e-13 0.000000e+00
1.458298e-01 -5.095255e-14 0.000000e+00
1.442856e-01 1.590141e-13 0.000000e+00
1.417656e-01 -6.145228e-14 0.000000e+00
1.383896e-01 4.277748e-14 0.000000e+00
1.342174e-01 1.285465e-13 0.000000e+00
1.295047e-01 1.438826e-13 0.000000e+00
1.243932e-01 2.413422e-13 0.000000e+00
1.192043e-01 -3.135249e-14 0.000000e+00
1.141287e-01 -2.095091e-13 0.000000e+00
1.092586e-01 -4.465372e-15 0.000000e+00
1.043347e-01 -1.090394e-13 0.000000e+00
9.881462e-02 5.161879e-14 0.000000e+00
9.135229e-02 -2.967174e-14 0.000000e+00
8.279527e-02 2.740131e-13 0.000000e+00
6.723335e-02 -1.174107e-13 0.000000e+00
4.938446e-02 4.037237e-13 0.000000e+00
0.000000e+00 4.388487e-13 0.000000e+00
0.000000e+00 1.655858e-13 0.000000e+00
1.840249e-02 -4.640405e-13 0.000000e+00
3.158370e-02 -2.384965e-13 0.000000e+00
4.235888e-02 -2.320745e-13 0.000000e+00
5.136565e-02 -5.223458e-13 0.000000e+00
5.929176e-02 -6.151507e-13 0.000000e+00
6.625652e-02 -5.368705e-13 0.000000e+00
7.249770e-02 -8.104557e-13 0.000000e+00
7.811002e-02 -5.929376e-13 0.000000e+00
8.330115e-02 -6.175008e-13 0.000000e+00
8.827700e-02 -4.243273e-13 0.000000e+00
9.330929e-02 -3.797543e-13 0.000000e+00
9.862344e-02 8.131832e-14 0.000000e+00
1.043686e-01 -2.656724e-13 0.000000e+00
1.105122e-01 -1.367538e-14 0.000000e+00
1.168759e-01 1.656254e-13 0.000000e+00
1.231757e-01 1.594943e-13 0.000000e+00
1.291168e-01 2.851106e-13 0.000000e+00
1.344024e-01 -3.191896e-14 0.000000e+00
1.388152e-01 1.972897e-13 0.000000e+00
1.422405e-01 6.162177e-14 0.000000e+00
1.446629e-01 2.890947e-13 0.000000e+00
1.460428e-01 5.143804e-14 0.000000e+00
1.464333e-01 1.953440e-13 0.000000e+00
1.458298e-01 -6.254507e-14 0.000000e+00
1.442856e-01 6.278958e-14 0.000000e+00
1.417656e-01 -4.121518e-14 0.000000e+00
1.383896e-01 -6.093804e-14 0.000000e+00
1.342174e-01 8.185943e-14 0.000000e+00
1.295047e-01 7.300971e-14 0.000000e+00
1.243932e-01 8.667382e-14 0.000000e+00
1.192043e-01 -8.582326e-14 0.000000e+00
1.141287e-01 -1.241285e-13 0.000000e+00
1.092586e-01 -1.034781e-13 0.000000e+00
1.043347e-01 -6.021672e-14 0.000000e+00
9.881462e-02 4.740612e-14 0.000000e+00
9.135229e-02 8.736281e-15 0.000000e+00
8.279527e-02 3.314170e-13 0.000000e+00
6.723335e-02 -8.530507e-14 0.000000e+00
4.938446e-02 1.937752e-13 0.000000e+00
0.000000e+00 5.977914e-13 0.000000e+00
0.000000e+00 -1.568319e-13 0.000000e+00
1.840249e-02 -3.643452e-13 0.000000e+00
3.158370e-02 -1.385554e-13 0.000000e+00
4.235888e-02 -6.775992e-14 0.000000e+00
5.136565e-02 -3.091324e-13 0.000000e+00
5.929176e-02 -2.391667e-13 0.000000e+00
6.625652e-02 -1.882542e-13 0.000000e+00
7.249770e-02 -3.782296e-13 0.000000e+00
7.811002e-02 -2.468584e-13 0.000000e+00
8.330115e-02 -1.904717e-13 0.000000e+00
8.827700e-02 -1.279198e-13 0.000000e+00
9.330929e-02 -5.786930e-14 0.000000e+00
9.862344e-02 1.722544e-13 0.000000e+00
1.043686e-01 -9.731697e-14 0.000000e+00
1.105122e-01 6.343139e-14 0.000000e+00
1.168759e-01 1.186700e-13 0.000000e+00
1.231757e-01 1.254308e-13 0.000000e+00
1.291168e-01 1.433225e-13 0.000000e+00
1.344024e-01 7.841471e-15 0.000000e+00
1.388152e-01 6.759662e-14 0.000000e+00
1.422405e-01 -1.253617e-14 0.000000e+00
1.446629e-01 1.017492e-13 0.000000e+00
1.460428e-01 -2.560773e-14 0.000000e+00
1.464333e-01 5.237426e-14 0.000000e+00
1.458298e-01 -8.635867e-14 0.000000e+00
1.442856e-01 -4.569102e-14 0.000000e+00
1.417656e-01 -1.227861e-14 0.000000e+00
1.383896e-01 -8.980988e-14 0.000000e+00
1.342174e-01 8.090913e-14 0.000000e+00
1.295047e-01 1.829942e-14 0.000000e+00
1.243932e-01 -3.540318e-15 0.000000e+00
1.192043e-01 -1.364805e-13 0.000000e+00
1.141287e-01 -6.010928e-14 0.000000e+00
1.092586e-01 -1.191415e-13 0.000000e+00
1.043347e-01 -6.304259e-14 0.000000e+00
9.881462e-02 2.205617e-15 0.000000e+00
9.135229e-02 5.805720e-14 0.000000e+00
8.279527e-02 2.272802e-13 0.000000e+00
6.723335e-02 -6.665640e-14 0.000000e+00
4.938446e-02 1.429104e-13 0.000000e+00
0.000000e+00 3.357431e-13 0.000000e+00
0.000000e+00 0.000000e+00 0.000000e+00
1.840249e-02 0.000000e+00 0.000000e+00
3.158370e-02 0.000000e+00 0.000000e+00
4.235888e-02 0.000000e+00 0.000000e+00
5.136565e-02 0.000000e+00 0.000000e+00
5.929176e-02 0.000000e+00 0.000000e+00
6.625652e-02 0.000000e+00 0.000000e+00
7.249770e-02 0.000000e+00 0.000000e+00
7.811002e-02 0.000000e+00 0.000000e+00
8.330115e-02 0.000000e+00 0.000000e+00
8.827700e-02 0.000000e+00 0.000000e+00
9.330929e-02 0.000000e+00 0.000000e+00
9.862344e-02 0.000000e+00 0.000000e+00
1.043686e-01 0.000000e+00 0.000000e+00
1.105122e-01 0.000000e+00 0.000000e+00
1.168759e-01 0.000000e+00 0.000000e+00
1.231757e-01 0.000000e+00 0.000000e+00
1.291168e-01 0.000000e+00 0.000000e+00
1.344024e-01 0.000000e+00 0.000000e+00
1.388152e-01 0.000000e+00 0.000000e+00
1.422405e-01 0.000000e+00 0.000000e+00
1.446629e-01 0.000000e+00 0.000000e+00
1.460428e-01 0.000000e+00 0.000000e+00
1.464333e-01 0.000000e+00 0.000000e+00
1.458298e-01 0.000000e+00 0.000000e+00
1.442856e-01 0.000000e+00 0.000000e+00
1.417656e-01 0.000000e+00 0.000000e+00
1.383896e-01 0.000000e+00 0.000000e+00
1.342174e-01 0.000000e+00 0.000000e+00
1.295047e-01 0.000000e+00 0.000000e+00
1.243932e-01 0.000000e+00 0.000000e+00
1.192043e-01 0.000000e+00 0.000000e+00
1.141287e-01 0.000000e+00 0.000000e+00
1.092586e-01 0.000000e+00 0.000000e+00
1.043347e-01 0.000000e+00 0.000000e+00
9.881462e-02 0.000000e+00 0.000000e+00
9.135229e-02 0.000000e+00 0.000000e+00
8.279527e-02 0.000000e+00 0.000000e+00
6.723335e-02 0.000000e+00 0.000000e+00
4.938446e-02 0.000000e+00 0.000000e+00
0.000000e+00 0.000000e+00 0.000000e+00
0.000000e+00 0.000000e+00 -1.685936e-02
4.411129e-03 0.000000e+00 -1.484195e-02
1.073380e-02 0.000000e+00 -1.236758e-02
1.731795e-02 0.000000e+00 -1.120209e-02
2.383054e-02 0.000000e+00 -1.016830e-02
3.007118e-02 0.000000e+00 -9.419354e-03
3.594282e-02 0.000000e+00 -8.714119e-03
4.140317e-02 0.000000e+00 -8.128547e-03
4.642214e-02 0.000000e+00 -7.615031e-03
5.098788e-02 0.000000e+00 -7.259787e-03
5.518603e-02 0.000000e+00 -7.101798e-03
5.914499e-02 0.000000e+00 -7.166366e-03
6.300022e-02 0.000000e+00 -7.400844e-03
6.682678e-02 0.000000e+00 -7.690090e-03
7.061409e-02 0.000000e+00 -7.884682e-03
7.427710e-02 0.000000e+00 -7.881173e-03
7.772457e-02 0.000000e+00 -7.663136e-03
8.097478e-02 0.000000e+00 -7.271543e-03
8.412705e-02 0.000000e+00 -6.727377e-03
8.715981e-02 0.000000e+00 -6.018117e-03
8.977916e-02 0.000000e+00 -5.144068e-03
9.155917e-02 0.000000e+00 -4.113718e-03
9.216045e-02 0.000000e+00 -3.001085e-03
9.141240e-02 0.000000e+00 -1.890395e-03
8.936608e-02 0.000000e+00 -8.369449e-04
8.617231e-02 0.000000e+00 1.483467e-04
8.207518e-02 0.000000e+00 1.024397e-03
7.734339e-02 0.000000e+00 1.726579e-03
7.237827e-02 0.000000e+00 2.196017e-03
6.752528e-02 0.000000e+00 2.398683e-03
6.316208e-02 0.000000e+00 2.373348e-03
5.938563e-02 0.000000e+00 2.133446e-03
5.619750e-02 0.000000e+00 1.842666e-03
5.325062e-02 0.000000e+00 1.757507e-03
5.029340e-02 0.000000e+00 1.819878e-03
4.708323e-02 0.000000e+00 3.196065e-03
4.304096e-02 0.000000e+00 3.756838e-03
3.765896e-02 0.000000e+00 8.372490e-03
2.937567e-02 0.000000e+00 9.734352e-03
1.817727e-02 0.000000e+00 2.410707e-02
0.000000e+00 0.000000e+00 4.268252e-02
0.000000e+00 -9.895032e-14 -1.685936e-02
4.411129e-03 8.041607e-14 -1.484195e-02
1.073380e-02 -1.800106e-13 -1.236758e-02
1.731795e-02 1.002799e-13 -1.120209e-02
2.383054e-02 5.262941e-14 -1.016830e-02
3.007118e-02 -1.874777e-13 -9.419354e-03
3.594282e-02 -1.448924e-13 -8.714119e-03
4.140317e-02 8.139443e-14 -8.128547e-03
4.642214e-02 1.017872e-13 -7.615031e-03
5.098788e-02 3.344672e-13 -7.259787e-03
5.518603e-02 5.384686e-13 -7.101798e-03
5.914499e-02 6.564311e-13 -7.166366e-03
6.300022e-02 6.417078e-13 -7.400844e-03
6.682678e-02 6.347495e-13 -7.690090e-03
7.061409e-02 4.928170e-13 -7.884682e-03
7.427710e-02 5.565643e-13 -7.881173e-03
7.772457e-02 4.643320e-13 -7.663136e-03
8.097478e-02 4.797738e-13 -7.271543e-03
8.412705e-02 3.257732e-13 -6.727377e-03
8.715981e-02 1.770686e-13 -6.018117e-03
8.977916e-02 1.326741e-13 -5.144068e-03
9.155917e-02 6.447674e-14 -4.113718e-03
9.216045e-02 7.247248e-14 -3.001085e-03
9.141240e-02 9.489253e-14 -1.890395e-03
8.936608e-02 -2.803586e-14 -8.369449e-04
8.617231e-02 -1.031371e-13 1.483467e-04
8.207518e-02 -2.736979e-13 1.024397e-03
7.734339e-02 -5.225521e-13 1.726579e-03
7.237827e-02 -6.385665e-13 2.196017e-03
6.752528e-02 -2.027826e-13 2.398683e-03
6.316208e-02 -1.340131e-14 2.373348e-03
5.938563e-02 3.093515e-13 2.133446e-03
5.619750e-02 2.607085e-13 1.842666e-03
5.325062e-02 5.152708e-13 1.757507e-03
5.029340e-02 3.319636e-13 1.819878e-03
4.708323e-02 4.148492e-13 3.196065e-03
4.304096e-02 6.843757e-14 3.756838e-03
3.765896e-02 2.609829e-13 8.372490e-03
2.937567e-02 1.444619e-14 9.734352e-03
1.817727e-02 -7.227809e-14 2.410707e-02
0.000000e+00 2.746327e-13 4.268252e-02
0.000000e+00 3.706033e-14 -1.685936e-02
4.411129e-03 -1.795519e-16 -1.484195e-02
1.073380e-02 -2.012668e-13 -1.236758e-02
1.731795e-02 3.033764e-14 -1.120209e-02
2.383054e-02 7.622440e-14 -1.016830e-02
3.007118e-02 -1.850032e-13 -9.419354e-03
3.594282e-02 -1.766509e-13 -8.714119e-03
4.140317e-02 8.964338e-15 -8.128547e-03
4.642214e-02 3.280278e-14 -7.615031e-03
5.098788e-02 3.344235e-13 -7.259787e-03
5.518603e-02 7.338562e-13 -7.101798e-03
5.914499e-02 9.801831e-13 -7.166366e-03
6.300022e-02 7.569135e-13 -7.400844e-03
6.682678e-02 8.321063e-13 -7.690090e-03
7.061409e-02 5.852321e-13 -7.884682e-03
7.427710e-02 7.263706e-13 -7.881173e-03
7.772457e-02 6.232523e-13 -7.663136e-03
8.097478e-02 5.792271e-13 -7.271543e-03
8.412705e-02 5.400381e-13 -6.727377e-03
8.715981e-02 2.017260e-13 -6.018117e-03
8.977916e-02 2.889521e-13 -5.144068e-03
9.155917e-02 2.081935e-14 -4.113718e-03
9.216045e-02 1.409639e-13 -3.001085e-03
9.141240e-02 5.471811e-14 -1.890395e-03
8.936608e-02 -2.286493e-15 -8.369449e-04
8.617231e-02 4.624023e-14 1.483467e-04
8.207518e-02 -1.352615e-13 1.024397e-03
7.734339e-02 -4.085601e-13 1.726579e-03
7.237827e-02 -7.230352e-13 2.196017e-03
6.752528e-02 -4.215210e-13 2.398683e-03
6.316208e-02 -3.593464e-13 2.373348e-03
5.938563e-02 7.676863e-14 2.133446e-03
5.619750e-02 2.169185e-13 1.842666e-03
5.325062e-02 3.854630e-13 1.757507e-03
5.029340e-02 3.150327e-13 1.819878e-03
4.708323e-02 6.902972e-13 3.196065e-03
4.304096e-02 1.217086e-13 3.756838e-03
3.765896e-02 2.355977e-13 8.372490e-03
2.937567e-02 2.182161e-13 9.734352e-03
1.817727e-02 -1.806737e-13 2.410707e-02
0.000000e+00 4.278100e-13 4.268252e-02
0.000000e+00 -1.042751e-13 -1.685936e-02
4.411129e-03 -5.844214e-14 -1.484195e-02
1.073380e-02 -9.031295e-14 -1.236758e-02
1.731795e-02 5.981209e-14 -1.120209e-02
2.383054e-02 6.484819e-14 -1.016830e-02
3.007118e-02 -1.383591e-13 -9.419354e-03
3.594282e-02 -1.051336e-13 -8.714119e-03
4.140317e-02 -1.069349e-13 -8.128547e-03
4.642214e-02 4.966077e-14 -7.615031e-03
5.098788e-02 1.041689e-13 -7.259787e-03
5.518603e-02 4.553500e-13 -7.101798e-03
5.914499e-02 5.847161e-13 -7.166366e-03
6.300022e-02 4.628179e-13 -7.400844e-03
6.682678e-02 5.411562e-13 -7.690090e-03
7.061409e-02 3.259795e-13 -7.884682e-03
7.427710e-02 4.728094e-13 -7.881173e-03
7.772457e-02 3.715166e-13 -7.663136e-03
8.097478e-02 4.909513e-13 -7.271543e-03
8.412705e-02 4.033086e-13 -6.727377e-03
8.715981e-02 2.399442e-13 -6.018117e-03
8.977916e-02 2.635667e-13 -5.144068e-03
9.155917e-02 -1.076373e-14 -4.113718e-03
9.216045e-02 9.920926e-14 -3.001085e-03
9.141240e-02 1.752872e-14 -1.890395e-03
8.936608e-02 1.124517e-13 -8.369449e-04
8.617231e-02 3.141531e-13 1.483467e-04
8.207518e-02 2.064492e-13 1.024397e-03
7.734339e-02 -8.133436e-14 1.726579e-03
7.237827e-02 -5.176492e-13 2.196017e-03
6.752528e-02 -4.018289e-13 2.398683e-03
6.316208e-02 -4.894758e-13 2.373348e-03
5.938563e-02 -2.183396e-13 2.133446e-03
5.619750e-02 2.620458e-14 1.842666e-03
5.325062e-02 2.436816e-13 1.757507e-03
5.029340e-02 1.646568e-13 1.819878e-03
4.708323e-02 5.584005e-13 3.196065e-03
4.304096e-02 7.654715e-14 3.756838e-03
3.765896e-02 1.793805e-13 8.372490e-03
2.937567e-02 3.464214e-14 9.734352e-03
1.817727e-02 5.311660e-14 2.410707e-02
0.000000e+00 2.898250e-13 4.268252e-02
0.000000e+00 -2.280184e-13 -1.685936e-02
4.411129e-03 5.538520e-14 -1.484195e-02
1.073380e-02 2.444135e-14 -1.236758e-02
1.731795e-02 -9.891908e-14 -1.120209e-02
2.383054e-02 -6.182052e-14 -1.016830e-02
3.007118e-02 -7.259346e-14 -9.419354e-03
3.594282e-02 -9.713371e-14 -8.714119e-03
4.140317e-02 -5.777079e-15 -8.128547e-03
4.642214e-02 3.267430e-14 -7.615031e-03
5.098788e-02 -7.338628e-14 -7.259787e-03
5.518603e-02 4.274655e-14 -7.101798e-03
5.914499e-02 8.971640e-14 -7.166366e-03
6.300022e-02 9.485472e-14 -7.400844e-03
6.682678e-02 9.698955e-14 -7.690090e-03
7.061409e-02 3.516247e-14 -7.884682e-03
7.427710e-02 8.262980e-14 -7.881173e-03
7.772457e-02 2.904111e-14 -7.663136e-03
8.097478e-02 1.946154e-13 -7.271543e-03
8.412705e-02 1.336008e-13 -6.727377e-03
8.715981e-02 9.640632e-14 -6.018117e-03
8.977916e-02 1.333145e-13 -5.144068e-03
9.155917e-02 -1.031142e-13 -4.113718e-03
9.216045e-02 2.000312e-14 -3.001085e-03
9.141240e-02 2.117885e-14 -1.890395e-03
8.936608e-02 4.046108e-14 -8.369449e-04
8.617231e-02 3.577023e-13 1.483467e-04
8.207518e-02 2.011648e-13 1.024397e-03
7.734339e-02 -1.409406e-13 1.726579e-03
7.237827e-02 -3.210960e-13 2.196017e-03
6.752528e-02 -3.713597e-13 2.398683e-03
6.316208e-02 -2.300230e-13 2.373348e-03
5.938563e-02 -1.564232e-14 2.133446e-03
5.619750e-02 -9.887778e-14 1.842666e-03
5.325062e-02 1.418037e-13 1.757507e-03
5.029340e-02 1.996696e-13 1.819878e-03
4.708323e-02 3.631647e-13 3.196065e-03
4.304096e-02 2.589404e-13 3.756838e-03
3.765896e-02 8.408910e-14 8.372490e-03
2.937567e-02 1.004875e-13 9.734352e-03
1.817727e-02 -3.714423e-14 2.410707e-02
0.000000e+00 3.989123e-13 4.268252e-02
0.000000e+00 -1.030841e-13 -1.685936e-02
4.411129e-03 -1.917760e-14 -1.484195e-02
1.073380e-02 -1.407331e-13 -1.236758e-02
1.731795e-02 -1.330399e-13 -1.120209e-02
2.383054e-02 1.805782e-14 -1.016830e-02
3.007118e-02 1.961108e-14 -9.419354e-03
3.594282e-02 -7.313739e-14 -8.714119e-03
4.140317e-02 3.699615e-14 -8.128547e-03
4.642214e-02 -1.827625e-14 -7.615031e-03
5.098788e-02 -1.266376e-13 -7.259787e-03
5.518603e-02 -1.400712e-13 -7.101798e-03