# vtk DataFile Version 3.0
vtk output
ASCII
DATASET UNSTRUCTURED_GRID
POINTS 11767 float
0.000000e+00 0.000000e+00 0.000000e+00
1.460000e-02 0.000000e+00 0.000000e+00
2.920000e-02 0.000000e+00 0.000000e+00
4.380000e-02 0.000000e+00 0.000000e+00
5.840000e-02 0.000000e+00 0.000000e+00
7.300000e-02 0.000000e+00 0.000000e+00
8.760000e-02 0.000000e+00 0.000000e+00
1.022000e-01 0.000000e+00 0.000000e+00
1.168000e-01 0.000000e+00 0.000000e+00
1.314000e-01 0.000000e+00 0.000000e+00
1.460000e-01 0.000000e+00 0.000000e+00
1.606000e-01 0.000000e+00 0.000000e+00
1.752000e-01 0.000000e+00 0.000000e+00
1.898000e-01 0.000000e+00 0.000000e+00
2.044000e-01 0.000000e+00 0.000000e+00
2.190000e-01 0.000000e+00 0.000000e+00
2.336000e-01 0.000000e+00 0.000000e+00
2.482000e-01 0.000000e+00 0.000000e+00
2.628000e-01 0.000000e+00 0.000000e+00
2.774000e-01 0.000000e+00 0.000000e+00
2.920000e-01 0.000000e+00 0.000000e+00
3.066000e-01 0.000000e+00 0.000000e+00
3.212000e-01 0.000000e+00 0.000000e+00
3.358000e-01 0.000000e+00 0.000000e+00
3.504000e-01 0.000000e+00 0.000000e+00
3.650000e-01 0.000000e+00 0.000000e+00
3.796000e-01 0.000000e+00 0.000000e+00
3.942000e-01 0.000000e+00 0.000000e+00
4.088000e-01 0.000000e+00 0.000000e+00
4.234000e-01 0.000000e+00 0.000000e+00
4.380000e-01 0.000000e+00 0.000000e+00
4.526000e-01 0.000000e+00 0.000000e+00
4.672000e-01 0.000000e+00 0.000000e+00
4.818000e-01 0.000000e+00 0.000000e+00
4.964000e-01 0.000000e+00 0.000000e+00
5.110000e-01 0.000000e+00 0.000000e+00
5.256000e-01 0.000000e+00 0.000000e+00
5.402000e-01 0.000000e+00 0.000000e+00
5.548000e-01 0.000000e+00 0.000000e+00
5.694000e-01 0.000000e+00 0.000000e+00
5.840000e-01 0.000000e+00 0.000000e+00
0.000000e+00 1.460000e-02 0.000000e+00
1.460000e-02 1.460000e-02 0.000000e+00
2.920000e-02 1.460000e-02 0.000000e+00
4.380000e-02 1.460000e-02 0.000000e+00
5.840000e-02 1.460000e-02 0.000000e+00
7.300000e-02 1.460000e-02 0.000000e+00
8.760000e-02 1.460000e-02 0.000000e+00
1.022000e-01 1.460000e-02 0.000000e+00
1.168000e-01 1.460000e-02 0.000000e+00
1.314000e-01 1.460000e-02 0.000000e+00
1.460000e-01 1.460000e-02 0.000000e+00
1.606000e-01 1.460000e-02 0.000000e+00
1.752000e-01 1.460000e-02 0.000000e+00
1.898000e-01 1.460000e-02 0.000000e+00
2.044000e-01 1.460000e-02 0.000000e+00
2.190000e-01 1.460000e-02 0.000000e+00
2.336000e-01 1.460000e-02 0.000000e+00
2.482000e-01 1.460000e-02 0.000000e+00
2.628000e-01 1.460000e-02 0.000000e+00
2.774000e-01 1.460000e-02 0.000000e+00
2.920000e-01 1.460000e-02 0.000000e+00
3.066000e-01 1.460000e-02 0.000000e+00
3.212000e-01 1.460000e-02 0.000000e+00
3.358000e-01 1.460000e-02 0.000000e+00
3.504000e-01 1.460000e-02 0.000000e+00
3.650000e-01 1.460000e-02 0.000000e+00
3.796000e-01 1.460000e-02 0.000000e+00
3.942000e-01 1.460000e-02 0.000000e+00
4.088000e-01 1.460000e-02 0.000000e+00
4.234000e-01 1.460000e-02 0.000000e+00
4.380000e-01 1.460000e-02 0.000000e+00
4.526000e-01 1.460000e-02 0.000000e+00
4.672000e-01 1.460000e-02 0.000000e+00
4.818000e-01 1.460000e-02 0.000000e+00
4.964000e-01 1.460000e-02 0.000000e+00
5.110000e-01 1.460000e-02 0.000000e+00
5.256000e-01 1.460000e-02 0.000000e+00
5.402000e-01 1.460000e-02 0.000000e+00
5.548000e-01 1.460000e-02 0.000000e+00
5.694000e-01 1.460000e-02 0.000000e+00
5.840000e-01 1.460000e-02 0.000000e+00
0.000000e+00 2.920000e-02 0.000000e+00
1.460000e-02 2.920000e-02 0.000000e+00
2.920000e-02 2.920000e-02 0.000000e+00
4.380000e-02 2.920000e-02 0.000000e+00
5.840000e-02 2.920000e-02 0.000000e+00
7.300000e-02 2.920000e-02 0.000000e+00
8.760000e-02 2.920000e-02 0.000000e+00
1.022000e-01 2.920000e-02 0.000000e+00
1.168000e-01 2.920000e-02 0.000000e+00
1.314000e-01 2.920000e-02 0.000000e+00
1.460000e-01 2.920000e-02 0.000000e+00
1.606000e-01 2.920000e-02 0.000000e+00
1.752000e-01 2.920000e-02 0.000000e+00
1.898000e-01 2.920000e-02 0.000000e+00
2.044000e-01 2.920000e-02 0.000000e+00
2.190000e-01 2.920000e-02 0.000000e+00
2.336000e-01 2.920000e-02 0.000000e+00
2.482000e-01 2.920000e-02 0.000000e+00
2.628000e-01 2.920000e-02 0.000000e+00
2.774000e-01 2.920000e-02 0.000000e+00
2.920000e-01 2.920000e-02 0.000000e+00
3.066000e-01 2.920000e-02 0.000000e+00
3.212000e-01 2.920000e-02 0.000000e+00
3.358000e-01 2.920000e-02 0.000000e+00
3.504000e-01 2.920000e-02 0.000000e+00
3.650000e-01 2.920000e-02 0.000000e+00
3.796000e-01 2.920000e-02 0.000000e+00
3.942000e-01 2.920000e-02 0.000000e+00
4.088000e-01 2.920000e-02 0.000000e+00
4.234000e-01 2.920000e-02 0.000000e+00
4.380000e-01 2.920000e-02 0.000000e+00
4.526000e-01 2.920000e-02 0.000000e+00
4.672000e-01 2.920000e-02 0.000000e+00
4.818000e-01 2.920000e-02 0.000000e+00
4.964000e-01 2.920000e-02 0.000000e+00
5.110000e-01 2.920000e-02 0.000000e+00
5.256000e-01 2.920000e-02 0.000000e+00
5.402000e-01 2.920000e-02 0.000000e+00
5.548000e-01 2.920000e-02 0.000000e+00
5.694000e-01 2.920000e-02 0.000000e+00
5.840000e-01 2.920000e-02 0.000000e+00
0.000000e+00 4.380000e-02 0.000000e+00
1.460000e-02 4.380000e-02 0.000000e+00
2.920000e-02 4.380000e-02 0.000000e+00
4.380000e-02 4.380000e-02 0.000000e+00
5.840000e-02 4.380000e-02 0.000000e+00
7.300000e-02 4.380000e-02 0.000000e+00
8.760000e-02 4.380000e-02 0.000000e+00
1.022000e-01 4.380000e-02 0.000000e+00
1.168000e-01 4.380000e-02 0.000000e+00
1.314000e-01 4.380000e-02 0.000000e+00
1.460000e-01 4.380000e-02 0.000000e+00
1.606000e-01 4.380000e-02 0.000000e+00
1.752000e-01 4.380000e-02 0.000000e+00
1.898000e-01 4.380000e-02 0.000000e+00
2.044000e-01 4.380000e-02 0.000000e+00
2.190000e-01 4.380000e-02 0.000000e+00
2.336000e-01 4.380000e-02 0.000000e+00
2.482000e-01 4.380000e-02 0.000000e+00
2.628000e-01 4.380000e-02 0.000000e+00
2.774000e-01 4.380000e-02 0.000000e+00
2.920000e-01 4.380000e-02 0.000000e+00
3.066000e-01 4.380000e-02 0.000000e+00
3.212000e-01 4.380000e-02 0.000000e+00
3.358000e-01 4.380000e-02 0.000000e+00
3.504000e-01 4.380000e-02 0.000000e+00
3.650000e-01 4.380000e-02 0.000000e+00
3.796000e-01 4.380000e-02 0.000000e+00
3.942000e-01 4.380000e-02 0.000000e+00
4.088000e-01 4.380000e-02 0.000000e+00
4.234000e-01 4.380000e-02 0.000000e+00
4.380000e-01 4.380000e-02 0.000000e+00
4.526000e-01 4.380000e-02 0.000000e+00
4.672000e-01 4.380000e-02 0.000000e+00
4.818000e-01 4.380000e-02 0.000000e+00
4.964000e-01 4.380000e-02 0.000000e+00
5.110000e-01 4.380000e-02 0.000000e+00
5.256000e-01 4.380000e-02 0.000000e+00
5.402000e-01 4.380000e-02 0.000000e+00
5.548000e-01 4.380000e-02 0.000000e+00
5.694000e-01 4.380000e-02 0.000000e+00
5.840000e-01 4.380000e-02 0.000000e+00
0.000000e+00 5.840000e-02 0.000000e+00
1.460000e-02 5.840000e-02 0.000000e+00
2.920000e-02 5.840000e-02 0.000000e+00
4.380000e-02 5.840000e-02 0.000000e+00
5.840000e-02 5.840000e-02 0.000000e+00
7.300000e-02 5.840000e-02 0.000000e+00
8.760000e-02 5.840000e-02 0.000000e+00
1.022000e-01 5.840000e-02 0.000000e+00
1.168000e-01 5.840000e-02 0.000000e+00
1.314000e-01 5.840000e-02 0.000000e+00
1.460000e-01 5.840000e-02 0.000000e+00
1.606000e-01 5.840000e-02 0.000000e+00
1.752000e-01 5.840000e-02 0.000000e+00
1.898000e-01 5.840000e-02 0.000000e+00
2.044000e-01 5.840000e-02 0.000000e+00
2.190000e-01 5.840000e-02 0.000000e+00
2.336000e-01 5.840000e-02 0.000000e+00
2.482000e-01 5.840000e-02 0.000000e+00
2.628000e-01 5.840000e-02 0.000000e+00
2.774000e-01 5.840000e-02 0.000000e+00
2.920000e-01 5.840000e-02 0.000000e+00
3.066000e-01 5.840000e-02 0.000000e+00
3.212000e-01 5.840000e-02 0.000000e+00
3.358000e-01 5.840000e-02 0.000000e+00
3.504000e-01 5.840000e-02 0.000000e+00
3.650000e-01 5.840000e-02 0.000000e+00
3.796000e-01 5.840000e-02 0.000000e+00
3.942000e-01 5.840000e-02 0.000000e+00
4.088000e-01 5.840000e-02 0.000000e+00
4.234000e-01 5.840000e-02 0.000000e+00
4.380000e-01 5.840000e-02 0.000000e+00
4.526000e-01 5.840000e-02 0.000000e+00
4.672000e-01 5.840000e-02 0.000000e+00
4.818000e-01 5.840000e-02 0.000000e+00
4.964000e-01 5.840000e-02 0.000000e+00
5.110000e-01 5.840000e-02 0.000000e+00
5.256000e-01 5.840000e-02 0.000000e+00
5.402000e-01 5.840000e-02 0.000000e+00
5.548000e-01 5.840000e-02 0.000000e+00
5.694000e-01 5.840000e-02 0.000000e+00
5.840000e-01 5.840000e-02 0.000000e+00
0.000000e+00 7.300000e-02 0.000000e+00
1.460000e-02 7.300000e-02 0.000000e+00
2.920000e-02 7.300000e-02 0.000000e+00
4.380000e-02 7.300000e-02 0.000000e+00
5.840000e-02 7.300000e-02 0.000000e+00
7.300000e-02 7.300000e-02 0.000000e+00
8.760000e-02 7.300000e-02 0.000000e+00
1.022000e-01 7.300000e-02 0.000000e+00
1.168000e-01 7.300000e-02 0.000000e+00
1.314000e-01 7.300000e-02 0.000000e+00
1.460000e-01 7.300000e-02 0.000000e+00
1.606000e-01 7.300000e-02 0.000000e+00
1.752000e-01 7.300000e-02 0.000000e+00
1.898000e-01 7.300000e-02 0.000000e+00
2.044000e-01 7.300000e-02 0.000000e+00
2.190000e-01 7.300000e-02 0.000000e+00
2.336000e-01 7.300000e-02 0.000000e+00
2.482000e-01 7.300000e-02 0.000000e+00
2.628000e-01 7.300000e-02 0.000000e+00
2.774000e-01 7.300000e-02 0.000000e+00
2.920000e-01 7.300000e-02 0.000000e+00
3.066000e-01 7.300000e-02 0.000000e+00
3.212000e-01 7.300000e-02 0.000000e+00
3.358000e-01 7.300000e-02 0.000000e+00
3.504000e-01 7.300000e-02 0.000000e+00
3.650000e-01 7.300000e-02 0.000000e+00
3.796000e-01 7.300000e-02 0.000000e+00
3.942000e-01 7.300000e-02 0.000000e+00
4.088000e-01 7.300000e-02 0.000000e+00
4.234000e-01 7.300000e-02 0.000000e+00
4.380000e-01 7.300000e-02 0.000000e+00
4.526000e-01 7.300000e-02 0.000000e+00
4.672000e-01 7.300000e-02 0.000000e+00
4.818000e-01 7.300000e-02 0.000000e+00
4.964000e-01 7.300000e-02 0.000000e+00
5.110000e-01 7.300000e-02 0.000000e+00
5.256000e-01 7.300000e-02 0.000000e+00
5.402000e-01 7.300000e-02 0.000000e+00
5.548000e-01 7.300000e-02 0.000000e+00
5.694000e-01 7.300000e-02 0.000000e+00
5.840000e-01 7.300000e-02 0.000000e+00
0.000000e+00 8.760000e-02 0.000000e+00
1.460000e-02 8.760000e-02 0.000000e+00
2.920000e-02 8.760000e-02 0.000000e+00
4.380000e-02 8.760000e-02 0.000000e+00
5.840000e-02 8.760000e-02 0.000000e+00
7.300000e-02 8.760000e-02 0.000000e+00
8.760000e-02 8.760000e-02 0.000000e+00
1.022000e-01 8.760000e-02 0.000000e+00
[...]
POINT_DATA 11767
VECTORS Velocity float
0.000000e+00 0.000000e+00 0.000000e+00
-7.466587e-03 0.000000e+00 0.000000e+00
2.613852e-02 0.000000e+00 0.000000e+00
5.606710e-02 0.000000e+00 0.000000e+00
8.158796e-02 0.000000e+00 0.000000e+00
1.026825e-01 0.000000e+00 0.000000e+00
1.216721e-01 0.000000e+00 0.000000e+00
1.381878e-01 0.000000e+00 0.000000e+00
1.526908e-01 0.000000e+00 0.000000e+00
1.650308e-01 0.000000e+00 0.000000e+00
1.753522e-01 0.000000e+00 0.000000e+00
1.835268e-01 0.000000e+00 0.000000e+00
1.894094e-01 0.000000e+00 0.000000e+00
1.927151e-01 0.000000e+00 0.000000e+00
1.931515e-01 0.000000e+00 0.000000e+00
1.903314e-01 0.000000e+00 0.000000e+00
1.838307e-01 0.000000e+00 0.000000e+00
1.733609e-01 0.000000e+00 0.000000e+00
1.589376e-01 0.000000e+00 0.000000e+00
1.406866e-01 0.000000e+00 0.000000e+00
1.188434e-01 0.000000e+00 0.000000e+00
9.386060e-02 0.000000e+00 0.000000e+00
6.659197e-02 0.000000e+00 0.000000e+00
3.815899e-02 0.000000e+00 0.000000e+00
9.262343e-03 0.000000e+00 0.000000e+00
-1.992302e-02 0.000000e+00 0.000000e+00
-4.777526e-02 0.000000e+00 0.000000e+00
-7.268318e-02 0.000000e+00 0.000000e+00
-9.328118e-02 0.000000e+00 0.000000e+00
-1.078580e-01 0.000000e+00 0.000000e+00
-1.153044e-01 0.000000e+00 0.000000e+00
-1.141326e-01 0.000000e+00 0.000000e+00
-1.045299e-01 0.000000e+00 0.000000e+00
-8.745670e-02 0.000000e+00 0.000000e+00
-6.589766e-02 0.000000e+00 0.000000e+00
-4.378702e-02 0.000000e+00 0.000000e+00
-2.370078e-02 0.000000e+00 0.000000e+00
-5.908118e-03 0.000000e+00 0.000000e+00
3.010502e-03 0.000000e+00 0.000000e+00
1.517818e-02 0.000000e+00 0.000000e+00
0.000000e+00 0.000000e+00 0.000000e+00
0.000000e+00 5.288740e-14 0.000000e+00
-7.466587e-03 -5.688739e-14 0.000000e+00
2.613852e-02 -6.026585e-14 0.000000e+00
5.606710e-02 -6.418594e-15 0.000000e+00
8.158796e-02 3.619411e-15 0.000000e+00
1.026825e-01 -9.580220e-15 0.000000e+00
1.216721e-01 4.849628e-14 0.000000e+00
1.381878e-01 -1.854714e-14 0.000000e+00
1.526908e-01 9.627462e-15 0.000000e+00
1.650308e-01 -1.704478e-14 0.000000e+00
1.753522e-01 -5.993549e-15 0.000000e+00
1.835268e-01 6.473856e-15 0.000000e+00
1.894094e-01 1.709156e-17 0.000000e+00
1.927151e-01 1.905052e-14 0.000000e+00
1.931515e-01 2.558356e-14 0.000000e+00
1.903314e-01 1.107061e-15 0.000000e+00
1.838307e-01 -3.247350e-14 0.000000e+00
1.733609e-01 1.274113e-14 0.000000e+00
1.589376e-01 -1.601967e-14 0.000000e+00
1.406866e-01 1.264564e-14 0.000000e+00
1.188434e-01 -6.515460e-15 0.000000e+00
9.386060e-02 1.541179e-14 0.000000e+00
6.659197e-02 -1.297672e-14 0.000000e+00
3.815899e-02 4.099717e-14 0.000000e+00
9.262343e-03 -4.434815e-14 0.000000e+00
-1.992302e-02 3.718248e-14 0.000000e+00
-4.777526e-02 -1.904625e-14 0.000000e+00
-7.268318e-02 2.505268e-14 0.000000e+00
-9.328118e-02 -1.252746e-14 0.000000e+00
-1.078580e-01 -2.547181e-14 0.000000e+00
-1.153044e-01 2.004139e-14 0.000000e+00
-1.141326e-01 -1.869820e-14 0.000000e+00
-1.045299e-01 8.592576e-18 0.000000e+00
-8.745670e-02 3.538881e-14 0.000000e+00
-6.589766e-02 -6.424635e-14 0.000000e+00
-4.378702e-02 1.404509e-13 0.000000e+00
-2.370078e-02 -5.642752e-14 0.000000e+00
-5.908118e-03 2.343326e-14 0.000000e+00
3.010502e-03 -1.949802e-14 0.000000e+00
1.517818e-02 -3.746555e-14 0.000000e+00
0.000000e+00 2.421628e-14 0.000000e+00
0.000000e+00 1.531743e-13 0.000000e+00
-7.466587e-03 -4.511773e-14 0.000000e+00
2.613852e-02 -5.545732e-14 0.000000e+00
5.606710e-02 -3.815471e-14 0.000000e+00
8.158796e-02 7.527285e-14 0.000000e+00
1.026825e-01 -4.913456e-14 0.000000e+00
1.216721e-01 4.877192e-14 0.000000e+00
1.381878e-01 -2.511760e-14 0.000000e+00
1.526908e-01 4.377569e-14 0.000000e+00
1.650308e-01 -1.954017e-14 0.000000e+00
1.753522e-01 1.025484e-14 0.000000e+00
1.835268e-01 -4.845807e-15 0.000000e+00
1.894094e-01 -8.232929e-15 0.000000e+00
1.927151e-01 3.653811e-14 0.000000e+00
1.931515e-01 5.180756e-14 0.000000e+00
1.903314e-01 -6.868850e-15 0.000000e+00
1.838307e-01 -4.694445e-14 0.000000e+00
1.733609e-01 3.157353e-14 0.000000e+00
1.589376e-01 -3.334674e-14 0.000000e+00
1.406866e-01 2.374217e-14 0.000000e+00
1.188434e-01 -2.517648e-14 0.000000e+00
9.386060e-02 1.769432e-14 0.000000e+00
6.659197e-02 1.888002e-15 0.000000e+00
3.815899e-02 2.687924e-14 0.000000e+00
9.262343e-03 -3.906041e-14 0.000000e+00
-1.992302e-02 2.544635e-14 0.000000e+00
-4.777526e-02 -1.327623e-14 0.000000e+00
-7.268318e-02 -1.471311e-14 0.000000e+00
-9.328118e-02 -3.623520e-14 0.000000e+00
-1.078580e-01 -4.161253e-14 0.000000e+00
-1.153044e-01 1.681768e-14 0.000000e+00
-1.141326e-01 -1.943973e-14 0.000000e+00
-1.045299e-01 -3.113185e-14 0.000000e+00
-8.745670e-02 5.577620e-14 0.000000e+00
-6.589766e-02 -1.741148e-14 0.000000e+00
-4.378702e-02 6.384300e-14 0.000000e+00
-2.370078e-02 -2.272615e-14 0.000000e+00
-5.908118e-03 -6.122747e-14 0.000000e+00
3.010502e-03 1.009484e-14 0.000000e+00
1.517818e-02 7.806304e-15 0.000000e+00
0.000000e+00 -1.630884e-13 0.000000e+00
0.000000e+00 6.266343e-14 0.000000e+00
-7.466587e-03 2.909764e-14 0.000000e+00
2.613852e-02 1.916872e-14 0.000000e+00
5.606710e-02 -8.543715e-14 0.000000e+00
8.158796e-02 9.161647e-14 0.000000e+00
1.026825e-01 -3.203976e-14 0.000000e+00
1.216721e-01 2.401145e-15 0.000000e+00
1.381878e-01 6.342272e-15 0.000000e+00
1.526908e-01 6.333914e-14 0.000000e+00
1.650308e-01 -4.099956e-14 0.000000e+00
1.753522e-01 3.408391e-14 0.000000e+00
1.835268e-01 -4.497119e-14 0.000000e+00
1.894094e-01 -2.673883e-15 0.000000e+00
1.927151e-01 3.541575e-14 0.000000e+00
1.931515e-01 3.091376e-14 0.000000e+00
1.903314e-01 4.266397e-15 0.000000e+00
1.838307e-01 -4.465610e-14 0.000000e+00
1.733609e-01 3.636426e-14 0.000000e+00
1.589376e-01 -1.478866e-14 0.000000e+00
1.406866e-01 1.509895e-14 0.000000e+00
1.188434e-01 -4.297484e-14 0.000000e+00
9.386060e-02 3.825984e-14 0.000000e+00
6.659197e-02 -1.359824e-14 0.000000e+00
3.815899e-02 6.970472e-14 0.000000e+00
9.262343e-03 -8.055796e-14 0.000000e+00
-1.992302e-02 3.225274e-14 0.000000e+00
-4.777526e-02 -3.081802e-14 0.000000e+00
-7.268318e-02 5.204870e-16 0.000000e+00
-9.328118e-02 -5.292045e-14 0.000000e+00
-1.078580e-01 -8.532590e-15 0.000000e+00
-1.153044e-01 -1.044636e-14 0.000000e+00
-1.141326e-01 4.825162e-14 0.000000e+00
-1.045299e-01 -1.043931e-13 0.000000e+00
-8.745670e-02 1.443488e-13 0.000000e+00
-6.589766e-02 -5.248246e-14 0.000000e+00
-4.378702e-02 1.464886e-13 0.000000e+00
-2.370078e-02 -1.269021e-13 0.000000e+00
-5.908118e-03 1.219361e-13 0.000000e+00
3.010502e-03 1.936057e-14 0.000000e+00
1.517818e-02 -5.334843e-14 0.000000e+00
0.000000e+00 -2.308080e-13 0.000000e+00
0.000000e+00 -1.172144e-13 0.000000e+00
-7.466587e-03 -1.004368e-13 0.000000e+00
2.613852e-02 -1.537766e-14 0.000000e+00
5.606710e-02 -6.623139e-14 0.000000e+00
8.158796e-02 4.941766e-14 0.000000e+00
1.026825e-01 3.165041e-15 0.000000e+00
1.216721e-01 -2.729103e-14 0.000000e+00
1.381878e-01 6.682379e-15 0.000000e+00
1.526908e-01 4.254264e-14 0.000000e+00
1.650308e-01 -3.525726e-14 0.000000e+00
1.753522e-01 -1.064092e-14 0.000000e+00
1.835268e-01 -3.324625e-14 0.000000e+00
1.894094e-01 2.551642e-14 0.000000e+00
1.927151e-01 2.771136e-14 0.000000e+00
1.931515e-01 4.322704e-14 0.000000e+00
1.903314e-01 6.612473e-15 0.000000e+00
1.838307e-01 -4.922028e-14 0.000000e+00
1.733609e-01 2.871084e-14 0.000000e+00
1.589376e-01 -6.721229e-15 0.000000e+00
1.406866e-01 1.181061e-14 0.000000e+00
1.188434e-01 -3.727786e-14 0.000000e+00
9.386060e-02 2.184054e-14 0.000000e+00
6.659197e-02 4.228935e-15 0.000000e+00
3.815899e-02 3.703523e-14 0.000000e+00
9.262343e-03 -7.733104e-15 0.000000e+00
-1.992302e-02 -1.156341e-14 0.000000e+00
-4.777526e-02 4.313491e-15 0.000000e+00
-7.268318e-02 -4.450040e-14 0.000000e+00
-9.328118e-02 -2.092752e-14 0.000000e+00
-1.078580e-01 -1.739231e-14 0.000000e+00
-1.153044e-01 4.832330e-14 0.000000e+00
-1.141326e-01 4.791717e-14 0.000000e+00
-1.045299e-01 -5.524661e-14 0.000000e+00
-8.745670e-02 9.272896e-14 0.000000e+00
-6.589766e-02 -4.136075e-14 0.000000e+00
-4.378702e-02 8.869000e-14 0.000000e+00
-2.370078e-02 -1.181593e-13 0.000000e+00
-5.908118e-03 7.803375e-14 0.000000e+00
3.010502e-03 4.248559e-14 0.000000e+00
1.517818e-02 -4.098846e-14 0.000000e+00
0.000000e+00 -1.028049e-13 0.000000e+00
0.000000e+00 1.180267e-13 0.000000e+00
-7.466587e-03 -2.058273e-13 0.000000e+00
2.613852e-02 2.796607e-14 0.000000e+00
5.606710e-02 -9.027077e-14 0.000000e+00
8.158796e-02 5.521391e-14 0.000000e+00
1.026825e-01 -4.315834e-14 0.000000e+00
1.216721e-01 -4.546070e-15 0.000000e+00
1.381878e-01 -1.721845e-14 0.000000e+00
1.526908e-01 3.749165e-14 0.000000e+00
1.650308e-01 -2.718301e-14 0.000000e+00
1.753522e-01 -1.690914e-14 0.000000e+00
1.835268e-01 -2.583295e-14 0.000000e+00
1.894094e-01 1.688850e-14 0.000000e+00
1.927151e-01 7.907060e-16 0.000000e+00
1.931515e-01 2.942699e-14 0.000000e+00
1.903314e-01 -9.227818e-15 0.000000e+00
1.838307e-01 -1.760965e-14 0.000000e+00
1.733609e-01 9.258867e-16 0.000000e+00
1.589376e-01 1.170920e-14 0.000000e+00
1.406866e-01 3.567764e-15 0.000000e+00
1.188434e-01 -2.485622e-14 0.000000e+00
9.386060e-02 2.317175e-14 0.000000e+00
6.659197e-02 -6.966517e-15 0.000000e+00
3.815899e-02 5.052312e-15 0.000000e+00
9.262343e-03 -1.373579e-14 0.000000e+00
-1.992302e-02 -9.241709e-15 0.000000e+00
-4.777526e-02 -4.873849e-14 0.000000e+00
-7.268318e-02 -7.285664e-15 0.000000e+00
-9.328118e-02 -2.078478e-14 0.000000e+00
-1.078580e-01 -4.179363e-14 0.000000e+00
-1.153044e-01 -1.250578e-14 0.000000e+00
-1.141326e-01 4.466217e-15 0.000000e+00
-1.045299e-01 -3.809831e-14 0.000000e+00
-8.745670e-02 5.113115e-14 0.000000e+00
-6.589766e-02 -1.737474e-14 0.000000e+00
-4.378702e-02 7.866656e-14 0.000000e+00
-2.370078e-02 -1.647369e-13 0.000000e+00
-5.908118e-03 1.319999e-13 0.000000e+00
3.010502e-03 -4.310962e-14 0.000000e+00
1.517818e-02 4.468000e-14 0.000000e+00
0.000000e+00 -3.709833e-14 0.000000e+00
0.000000e+00 0.000000e+00 0.000000e+00
-7.466587e-03 0.000000e+00 0.000000e+00
2.613852e-02 0.000000e+00 0.000000e+00
5.606710e-02 0.000000e+00 0.000000e+00
8.158796e-02 0.000000e+00 0.000000e+00
1.026825e-01 0.000000e+00 0.000000e+00
1.216721e-01 0.000000e+00 0.000000e+00
1.381878e-01 0.000000e+00 0.000000e+00
1.526908e-01 0.000000e+00 0.000000e+00
1.650308e-01 0.000000e+00 0.000000e+00
1.753522e-01 0.000000e+00 0.000000e+00
1.835268e-01 0.000000e+00 0.000000e+00
1.894094e-01 0.000000e+00 0.000000e+00
1.927151e-01 0.000000e+00 0.000000e+00
1.931515e-01 0.000000e+00 0.000000e+00
1.903314e-01 0.000000e+00 0.000000e+00
1.838307e-01 0.000000e+00 0.000000e+00
1.733609e-01 0.000000e+00 0.000000e+00
1.589376e-01 0.000000e+00 0.000000e+00
1.406866e-01 0.000000e+00 0.000000e+00
1.188434e-01 0.000000e+00 0.000000e+00
9.386060e-02 0.000000e+00 0.000000e+00
6.659197e-02 0.000000e+00 0.000000e+00
3.815899e-02 0.000000e+00 0.000000e+00
9.262343e-03 0.000000e+00 0.000000e+00
-1.992302e-02 0.000000e+00 0.000000e+00
-4.777526e-02 0.000000e+00 0.000000e+00
-7.268318e-02 0.000000e+00 0.000000e+00
-9.328118e-02 0.000000e+00 0.000000e+00
-1.078580e-01 0.000000e+00 0.000000e+00
-1.153044e-01 0.000000e+00 0.000000e+00
-1.141326e-01 0.000000e+00 0.000000e+00
-1.045299e-01 0.000000e+00 0.000000e+00
-8.745670e-02 0.000000e+00 0.000000e+00
-6.589766e-02 0.000000e+00 0.000000e+00
-4.378702e-02 0.000000e+00 0.000000e+00
-2.370078e-02 0.000000e+00 0.000000e+00
-5.908118e-03 0.000000e+00 0.000000e+00
3.010502e-03 0.000000e+00 0.000000e+00
1.517818e-02 0.000000e+00 0.000000e+00
0.000000e+00 0.000000e+00 0.000000e+00
0.000000e+00 0.000000e+00 9.770427e-03
2.403111e-03 0.000000e+00 -1.441392e-02
1.223343e-02 0.000000e+00 -3.142642e-02
2.524376e-02 0.000000e+00 -2.451958e-02
3.882393e-02 0.000000e+00 -2.273326e-02
5.331905e-02 0.000000e+00 -2.055792e-02
6.820983e-02 0.000000e+00 -1.930364e-02
8.298082e-02 0.000000e+00 -1.760055e-02
9.712224e-02 0.000000e+00 -1.596001e-02
1.100775e-01 0.000000e+00 -1.407215e-02
1.213881e-01 0.000000e+00 -1.210079e-02
1.306716e-01 0.000000e+00 -9.901198e-03
1.376199e-01 0.000000e+00 -7.454810e-03
1.418736e-01 0.000000e+00 -4.675418e-03
1.430476e-01 0.000000e+00 -1.549690e-03
1.408300e-01 0.000000e+00 1.938752e-03
1.350746e-01 0.000000e+00 5.724644e-03
1.256323e-01 0.000000e+00 9.672373e-03
1.122467e-01 0.000000e+00 1.360955e-02
9.490369e-02 0.000000e+00 1.740134e-02
7.383296e-02 0.000000e+00 2.084035e-02
4.958908e-02 0.000000e+00 2.366877e-02
2.269791e-02 0.000000e+00 2.558980e-02
-6.108440e-03 0.000000e+00 2.656478e-02
-3.585083e-02 0.000000e+00 2.689533e-02
-6.465552e-02 0.000000e+00 2.614722e-02
-9.131634e-02 0.000000e+00 2.369266e-02
-1.142331e-01 0.000000e+00 1.985244e-02
-1.322864e-01 0.000000e+00 1.453119e-02
-1.441248e-01 0.000000e+00 7.906495e-03
-1.487275e-01 0.000000e+00 -6.803677e-05
-1.447821e-01 0.000000e+00 -8.839466e-03
-1.321922e-01 0.000000e+00 -1.711352e-02
-1.118211e-01 0.000000e+00 -2.347232e-02
-8.690478e-02 0.000000e+00 -2.604063e-02
-6.151629e-02 0.000000e+00 -2.448090e-02
-3.897044e-02 0.000000e+00 -2.288598e-02
-2.014454e-02 0.000000e+00 -1.565666e-02
-5.992144e-03 0.000000e+00 -1.551310e-02
4.411145e-03 0.000000e+00 -3.676581e-03
0.000000e+00 0.000000e+00 1.554340e-02
0.000000e+00 7.666483e-15 9.770427e-03
2.403111e-03 -1.871383e-14 -1.441392e-02
1.223343e-02 1.881560e-14 -3.142642e-02
2.524376e-02 -2.656733e-14 -2.451958e-02
3.882393e-02 1.967680e-15 -2.273326e-02
5.331905e-02 2.280110e-14 -2.055792e-02
6.820983e-02 3.481480e-15 -1.930364e-02
8.298082e-02 -4.320253e-16 -1.760055e-02
9.712224e-02 -2.871253e-14 -1.596001e-02
1.100775e-01 2.605802e-14 -1.407215e-02
1.213881e-01 3.558974e-14 -1.210079e-02
1.306716e-01 3.958005e-14 -9.901198e-03
1.376199e-01 -2.834520e-14 -7.454810e-03
1.418736e-01 -1.809771e-14 -4.675418e-03
1.430476e-01 -7.552374e-15 -1.549690e-03
1.408300e-01 -1.153729e-14 1.938752e-03
1.350746e-01 3.826855e-14 5.724644e-03
1.256323e-01 -2.154351e-14 9.672373e-03
1.122467e-01 1.644963e-14 1.360955e-02
9.490369e-02 -3.159024e-16 1.740134e-02
7.383296e-02 -8.983103e-15 2.084035e-02
4.958908e-02 2.206169e-15 2.366877e-02
2.269791e-02 8.498884e-15 2.558980e-02
-6.108440e-03 -8.243173e-15 2.656478e-02
-3.585083e-02 1.992842e-15 2.689533e-02
-6.465552e-02 2.897346e-14 2.614722e-02
-9.131634e-02 -3.215397e-16 2.369266e-02
-1.142331e-01 -3.000201e-14 1.985244e-02
-1.322864e-01 1.747396e-14 1.453119e-02
-1.441248e-01 4.232334e-14 7.906495e-03
-1.487275e-01 -3.997182e-14 -6.803677e-05
-1.447821e-01 1.395249e-14 -8.839466e-03
-1.321922e-01 -3.288504e-15 -1.711352e-02
-1.118211e-01 4.347170e-15 -2.347232e-02
-8.690478e-02 -4.498291e-16 -2.604063e-02
-6.151629e-02 1.476603e-14 -2.448090e-02
-3.897044e-02 -4.815832e-14 -2.288598e-02
-2.014454e-02 -3.815715e-15 -1.565666e-02
-5.992144e-03 -7.725662e-14 -1.551310e-02
4.411145e-03 7.311581e-14 -3.676581e-03
0.000000e+00 -2.535059e-14 1.554340e-02
0.000000e+00 -5.357293e-14 9.770427e-03
2.403111e-03 2.880234e-14 -1.441392e-02
1.223343e-02 1.093617e-14 -3.142642e-02
2.524376e-02 -1.292694e-14 -2.451958e-02
3.882393e-02 2.008356e-14 -2.273326e-02
5.331905e-02 4.540607e-15 -2.055792e-02
6.820983e-02 5.673863e-14 -1.930364e-02
8.298082e-02 -1.419347e-14 -1.760055e-02
9.712224e-02 2.547106e-14 -1.596001e-02
1.100775e-01 6.160725e-14 -1.407215e-02
1.213881e-01 3.780749e-14 -1.210079e-02
1.306716e-01 2.536372e-14 -9.901198e-03
1.376199e-01 -6.169928e-14 -7.454810e-03
1.418736e-01 -1.610595e-14 -4.675418e-03
1.430476e-01 -4.307587e-15 -1.549690e-03
1.408300e-01 -2.985475e-14 1.938752e-03
1.350746e-01 6.028816e-14 5.724644e-03
1.256323e-01 -3.451677e-14 9.672373e-03
1.122467e-01 1.440237e-14 1.360955e-02
9.490369e-02 2.042933e-14 1.740134e-02
7.383296e-02 -3.010059e-14 2.084035e-02
4.958908e-02 1.619954e-14 2.366877e-02
2.269791e-02 2.679507e-14 2.558980e-02
-6.108440e-03 -6.498336e-14 2.656478e-02
-3.585083e-02 3.293667e-14 2.689533e-02
-6.465552e-02 -3.110088e-15 2.614722e-02
-9.131634e-02 2.858920e-14 2.369266e-02
-1.142331e-01 -5.144184e-14 1.985244e-02
-1.322864e-01 1.954497e-14 1.453119e-02
-1.441248e-01 4.012495e-14 7.906495e-03
-1.487275e-01 -3.977009e-14 -6.803677e-05
-1.447821e-01 2.539327e-14 -8.839466e-03
-1.321922e-01 5.145810e-15 -1.711352e-02
-1.118211e-01 3.318946e-14 -2.347232e-02
-8.690478e-02 -1.364469e-15 -2.604063e-02
-6.151629e-02 5.154188e-15 -2.448090e-02
-3.897044e-02 -2.756574e-14 -2.288598e-02
-2.014454e-02 -2.375580e-14 -1.565666e-02
-5.992144e-03 -1.455387e-14 -1.551310e-02
4.411145e-03 8.179063e-15 -3.676581e-03
0.000000e+00 1.794021e-14 1.554340e-02
0.000000e+00 -4.333186e-14 9.770427e-03
2.403111e-03 1.602087e-14 -1.441392e-02
1.223343e-02 -8.621945e-16 -3.142642e-02
2.524376e-02 4.129437e-14 -2.451958e-02
3.882393e-02 -2.270781e-14 -2.273326e-02
5.331905e-02 1.207357e-14 -2.055792e-02
6.820983e-02 4.735243e-14 -1.930364e-02
8.298082e-02 -2.692418e-14 -1.760055e-02
9.712224e-02 5.326772e-15 -1.596001e-02
1.100775e-01 4.853395e-14 -1.407215e-02
1.213881e-01 6.168235e-14 -1.210079e-02
1.306716e-01 -8.521157e-15 -9.901198e-03
1.376199e-01 -4.592012e-14 -7.454810e-03
1.418736e-01 -2.155454e-14 -4.675418e-03
1.430476e-01 -2.415727e-14 -1.549690e-03
1.408300e-01 -2.305365e-14 1.938752e-03
1.350746e-01 5.671031e-14 5.724644e-03
1.256323e-01 -3.400253e-14 9.672373e-03
1.122467e-01 3.220990e-14 1.360955e-02
9.490369e-02 1.059605e-14 1.740134e-02
7.383296e-02 -2.806463e-14 2.084035e-02
4.958908e-02 1.483629e-14 2.366877e-02
2.269791e-02 3.897759e-14 2.558980e-02
-6.108440e-03 -8.502478e-14 2.656478e-02
-3.585083e-02 4.108774e-14 2.689533e-02
-6.465552e-02 -2.477771e-15 2.614722e-02
-9.131634e-02 -1.156918e-14 2.369266e-02
-1.142331e-01 -1.279608e-14 1.985244e-02
-1.322864e-01 6.906888e-15 1.453119e-02
-1.441248e-01 6.859111e-14 7.906495e-03
-1.487275e-01 -9.020547e-14 -6.803677e-05
-1.447821e-01 4.762084e-15 -8.839466e-03
-1.321922e-01 -1.921370e-14 -1.711352e-02
-1.118211e-01 7.573645e-14 -2.347232e-02
-8.690478e-02 -9.005585e-14 -2.604063e-02
-6.151629e-02 2.075816e-14 -2.448090e-02
-3.897044e-02 8.407644e-15 -2.288598e-02
-2.014454e-02 -1.975646e-14 -1.565666e-02
-5.992144e-03 -1.049848e-13 -1.551310e-02
4.411145e-03 1.245235e-13 -3.676581e-03
0.000000e+00 -1.072950e-14 1.554340e-02
0.000000e+00 -3.786723e-14 9.770427e-03
2.403111e-03 7.727993e-14 -1.441392e-02
1.223343e-02 -1.899624e-14 -3.142642e-02
2.524376e-02 -1.211017e-14 -2.451958e-02
3.882393e-02 7.841512e-16 -2.273326e-02
5.331905e-02 1.164393e-14 -2.055792e-02
6.820983e-02 1.562056e-14 -1.930364e-02
8.298082e-02 -3.769163e-14 -1.760055e-02
9.712224e-02 -8.459171e-15 -1.596001e-02
1.100775e-01 4.906057e-14 -1.407215e-02
1.213881e-01 1.724704e-14 -1.210079e-02
1.306716e-01 1.645520e-14 -9.901198e-03
1.376199e-01 -3.325173e-14 -7.454810e-03
1.418736e-01 -3.209090e-14 -4.675418e-03
1.430476e-01 4.900987e-15 -1.549690e-03
1.408300e-01 -2.466671e-14 1.938752e-03
1.350746e-01 3.652862e-14 5.724644e-03
1.256323e-01 5.250740e-15 9.672373e-03
1.122467e-01 2.660202e-14 1.360955e-02
9.490369e-02 -1.605258e-15 1.740134e-02
7.383296e-02 -1.645884e-14 2.084035e-02
4.958908e-02 -1.169846e-15 2.366877e-02
2.269791e-02 5.833999e-14 2.558980e-02
-6.108440e-03 -8.149610e-14 2.656478e-02
-3.585083e-02 2.733332e-14 2.689533e-02
-6.465552e-02 -3.095423e-14 2.614722e-02
-9.131634e-02 9.001117e-15 2.369266e-02
-1.142331e-01 -5.019258e-15 1.985244e-02
-1.322864e-01 2.003554e-14 1.453119e-02
-1.441248e-01 6.303384e-14 7.906495e-03
-1.487275e-01 -8.331106e-14 -6.803677e-05
-1.447821e-01 2.118454e-14 -8.839466e-03
-1.321922e-01 4.036711e-14 -1.711352e-02
-1.118211e-01 7.555251e-14 -2.347232e-02
-8.690478e-02 -1.075803e-13 -2.604063e-02
-6.151629e-02 -4.696872e-14 -2.448090e-02
-3.897044e-02 1.949571e-14 -2.288598e-02
-2.014454e-02 -7.332700e-14 -1.565666e-02
-5.992144e-03 -3.406922e-14 -1.551310e-02
4.411145e-03 3.745327e-14 -3.676581e-03
0.000000e+00 1.929392e-14 1.554340e-02
0.000000e+00 -1.071716e-13 9.770427e-03
2.403111e-03 4.876395e-14 -1.441392e-02
1.223343e-02 -4.453771e-15 -3.142642e-02
2.524376e-02 -9.827461e-15 -2.451958e-02
3.882393e-02 4.860702e-14 -2.273326e-02
5.331905e-02 -6.339996e-15 -2.055792e-02
6.820983e-02 4.515349e-14 -1.930364e-02