# vtk DataFile Version 3.0
vtk output
ASCII
DATASET UNSTRUCTURED_GRID
POINTS 11767 float
0.000000e+00 0.000000e+00 0.000000e+00
1.460000e-02 0.000000e+00 0.000000e+00
2.920000e-02 0.000000e+00 0.000000e+00
4.380000e-02 0.000000e+00 0.000000e+00
5.840000e-02 0.000000e+00 0.000000e+00
7.300000e-02 0.000000e+00 0.000000e+00
8.760000e-02 0.000000e+00 0.000000e+00
1.022000e-01 0.000000e+00 0.000000e+00
1.168000e-01 0.000000e+00 0.000000e+00
1.314000e-01 0.000000e+00 0.000000e+00
1.460000e-01 0.000000e+00 0.000000e+00
1.606000e-01 0.000000e+00 0.000000e+00
1.752000e-01 0.000000e+00 0.000000e+00
1.898000e-01 0.000000e+00 0.000000e+00
2.044000e-01 0.000000e+00 0.000000e+00
2.190000e-01 0.000000e+00 0.000000e+00
2.336000e-01 0.000000e+00 0.000000e+00
2.482000e-01 0.000000e+00 0.000000e+00
2.628000e-01 0.000000e+00 0.000000e+00
2.774000e-01 0.000000e+00 0.000000e+00
2.920000e-01 0.000000e+00 0.000000e+00
3.066000e-01 0.000000e+00 0.000000e+00
3.212000e-01 0.000000e+00 0.000000e+00
3.358000e-01 0.000000e+00 0.000000e+00
3.504000e-01 0.000000e+00 0.000000e+00
3.650000e-01 0.000000e+00 0.000000e+00
3.796000e-01 0.000000e+00 0.000000e+00
3.942000e-01 0.000000e+00 0.000000e+00
4.088000e-01 0.000000e+00 0.000000e+00
4.234000e-01 0.000000e+00 0.000000e+00
4.380000e-01 0.000000e+00 0.000000e+00
4.526000e-01 0.000000e+00 0.000000e+00
4.672000e-01 0.000000e+00 0.000000e+00
4.818000e-01 0.000000e+00 0.000000e+00
4.964000e-01 0.000000e+00 0.000000e+00
5.110000e-01 0.000000e+00 0.000000e+00
5.256000e-01 0.000000e+00 0.000000e+00
5.402000e-01 0.000000e+00 0.000000e+00
5.548000e-01 0.000000e+00 0.000000e+00
5.694000e-01 0.000000e+00 0.000000e+00
5.840000e-01 0.000000e+00 0.000000e+00
0.000000e+00 1.460000e-02 0.000000e+00
1.460000e-02 1.460000e-02 0.000000e+00
2.920000e-02 1.460000e-02 0.000000e+00
4.380000e-02 1.460000e-02 0.000000e+00
5.840000e-02 1.460000e-02 0.000000e+00
7.300000e-02 1.460000e-02 0.000000e+00
8.760000e-02 1.460000e-02 0.000000e+00
1.022000e-01 1.460000e-02 0.000000e+00
1.168000e-01 1.460000e-02 0.000000e+00
1.314000e-01 1.460000e-02 0.000000e+00
1.460000e-01 1.460000e-02 0.000000e+00
1.606000e-01 1.460000e-02 0.000000e+00
1.752000e-01 1.460000e-02 0.000000e+00
1.898000e-01 1.460000e-02 0.000000e+00
2.044000e-01 1.460000e-02 0.000000e+00
2.190000e-01 1.460000e-02 0.000000e+00
2.336000e-01 1.460000e-02 0.000000e+00
2.482000e-01 1.460000e-02 0.000000e+00
2.628000e-01 1.460000e-02 0.000000e+00
2.774000e-01 1.460000e-02 0.000000e+00
2.920000e-01 1.460000e-02 0.000000e+00
3.066000e-01 1.460000e-02 0.000000e+00
3.212000e-01 1.460000e-02 0.000000e+00
3.358000e-01 1.460000e-02 0.000000e+00
3.504000e-01 1.460000e-02 0.000000e+00
3.650000e-01 1.460000e-02 0.000000e+00
3.796000e-01 1.460000e-02 0.000000e+00
3.942000e-01 1.460000e-02 0.000000e+00
4.088000e-01 1.460000e-02 0.000000e+00
4.234000e-01 1.460000e-02 0.000000e+00
4.380000e-01 1.460000e-02 0.000000e+00
4.526000e-01 1.460000e-02 0.000000e+00
4.672000e-01 1.460000e-02 0.000000e+00
4.818000e-01 1.460000e-02 0.000000e+00
4.964000e-01 1.460000e-02 0.000000e+00
5.110000e-01 1.460000e-02 0.000000e+00
5.256000e-01 1.460000e-02 0.000000e+00
5.402000e-01 1.460000e-02 0.000000e+00
5.548000e-01 1.460000e-02 0.000000e+00
5.694000e-01 1.460000e-02 0.000000e+00
5.840000e-01 1.460000e-02 0.000000e+00
0.000000e+00 2.920000e-02 0.000000e+00
1.460000e-02 2.920000e-02 0.000000e+00
2.920000e-02 2.920000e-02 0.000000e+00
4.380000e-02 2.920000e-02 0.000000e+00
5.840000e-02 2.920000e-02 0.000000e+00
7.300000e-02 2.920000e-02 0.000000e+00
8.760000e-02 2.920000e-02 0.000000e+00
1.022000e-01 2.920000e-02 0.000000e+00
1.168000e-01 2.920000e-02 0.000000e+00
1.314000e-01 2.920000e-02 0.000000e+00
1.460000e-01 2.920000e-02 0.000000e+00
1.606000e-01 2.920000e-02 0.000000e+00
1.752000e-01 2.920000e-02 0.000000e+00
1.898000e-01 2.920000e-02 0.000000e+00
2.044000e-01 2.920000e-02 0.000000e+00
2.190000e-01 2.920000e-02 0.000000e+00
2.336000e-01 2.920000e-02 0.000000e+00
2.482000e-01 2.920000e-02 0.000000e+00
2.628000e-01 2.920000e-02 0.000000e+00
2.774000e-01 2.920000e-02 0.000000e+00
2.920000e-01 2.920000e-02 0.000000e+00
3.066000e-01 2.920000e-02 0.000000e+00
3.212000e-01 2.920000e-02 0.000000e+00
3.358000e-01 2.920000e-02 0.000000e+00
3.504000e-01 2.920000e-02 0.000000e+00
3.650000e-01 2.920000e-02 0.000000e+00
3.796000e-01 2.920000e-02 0.000000e+00
3.942000e-01 2.920000e-02 0.000000e+00
4.088000e-01 2.920000e-02 0.000000e+00
4.234000e-01 2.920000e-02 0.000000e+00
4.380000e-01 2.920000e-02 0.000000e+00
4.526000e-01 2.920000e-02 0.000000e+00
4.672000e-01 2.920000e-02 0.000000e+00
4.818000e-01 2.920000e-02 0.000000e+00
4.964000e-01 2.920000e-02 0.000000e+00
5.110000e-01 2.920000e-02 0.000000e+00
5.256000e-01 2.920000e-02 0.000000e+00
5.402000e-01 2.920000e-02 0.000000e+00
5.548000e-01 2.920000e-02 0.000000e+00
5.694000e-01 2.920000e-02 0.000000e+00
5.840000e-01 2.920000e-02 0.000000e+00
0.000000e+00 4.380000e-02 0.000000e+00
1.460000e-02 4.380000e-02 0.000000e+00
2.920000e-02 4.380000e-02 0.000000e+00
4.380000e-02 4.380000e-02 0.000000e+00
5.840000e-02 4.380000e-02 0.000000e+00
7.300000e-02 4.380000e-02 0.000000e+00
8.760000e-02 4.380000e-02 0.000000e+00
1.022000e-01 4.380000e-02 0.000000e+00
1.168000e-01 4.380000e-02 0.000000e+00
1.314000e-01 4.380000e-02 0.000000e+00
1.460000e-01 4.380000e-02 0.000000e+00
1.606000e-01 4.380000e-02 0.000000e+00
1.752000e-01 4.380000e-02 0.000000e+00
1.898000e-01 4.380000e-02 0.000000e+00
2.044000e-01 4.380000e-02 0.000000e+00
2.190000e-01 4.380000e-02 0.000000e+00
2.336000e-01 4.380000e-02 0.000000e+00
2.482000e-01 4.380000e-02 0.000000e+00
2.628000e-01 4.380000e-02 0.000000e+00
2.774000e-01 4.380000e-02 0.000000e+00
2.920000e-01 4.380000e-02 0.000000e+00
3.066000e-01 4.380000e-02 0.000000e+00
3.212000e-01 4.380000e-02 0.000000e+00
3.358000e-01 4.380000e-02 0.000000e+00
3.504000e-01 4.380000e-02 0.000000e+00
3.650000e-01 4.380000e-02 0.000000e+00
3.796000e-01 4.380000e-02 0.000000e+00
3.942000e-01 4.380000e-02 0.000000e+00
4.088000e-01 4.380000e-02 0.000000e+00
4.234000e-01 4.380000e-02 0.000000e+00
4.380000e-01 4.380000e-02 0.000000e+00
4.526000e-01 4.380000e-02 0.000000e+00
4.672000e-01 4.380000e-02 0.000000e+00
4.818000e-01 4.380000e-02 0.000000e+00
4.964000e-01 4.380000e-02 0.000000e+00
5.110000e-01 4.380000e-02 0.000000e+00
5.256000e-01 4.380000e-02 0.000000e+00
5.402000e-01 4.380000e-02 0.000000e+00
5.548000e-01 4.380000e-02 0.000000e+00
5.694000e-01 4.380000e-02 0.000000e+00
5.840000e-01 4.380000e-02 0.000000e+00
0.000000e+00 5.840000e-02 0.000000e+00
1.460000e-02 5.840000e-02 0.000000e+00
2.920000e-02 5.840000e-02 0.000000e+00
4.380000e-02 5.840000e-02 0.000000e+00
5.840000e-02 5.840000e-02 0.000000e+00
7.300000e-02 5.840000e-02 0.000000e+00
8.760000e-02 5.840000e-02 0.000000e+00
1.022000e-01 5.840000e-02 0.000000e+00
1.168000e-01 5.840000e-02 0.000000e+00
1.314000e-01 5.840000e-02 0.000000e+00
1.460000e-01 5.840000e-02 0.000000e+00
1.606000e-01 5.840000e-02 0.000000e+00
1.752000e-01 5.840000e-02 0.000000e+00
1.898000e-01 5.840000e-02 0.000000e+00
2.044000e-01 5.840000e-02 0.000000e+00
2.190000e-01 5.840000e-02 0.000000e+00
2.336000e-01 5.840000e-02 0.000000e+00
2.482000e-01 5.840000e-02 0.000000e+00
2.628000e-01 5.840000e-02 0.000000e+00
2.774000e-01 5.840000e-02 0.000000e+00
2.920000e-01 5.840000e-02 0.000000e+00
3.066000e-01 5.840000e-02 0.000000e+00
3.212000e-01 5.840000e-02 0.000000e+00
3.358000e-01 5.840000e-02 0.000000e+00
3.504000e-01 5.840000e-02 0.000000e+00
3.650000e-01 5.840000e-02 0.000000e+00
3.796000e-01 5.840000e-02 0.000000e+00
3.942000e-01 5.840000e-02 0.000000e+00
4.088000e-01 5.840000e-02 0.000000e+00
4.234000e-01 5.840000e-02 0.000000e+00
4.380000e-01 5.840000e-02 0.000000e+00
4.526000e-01 5.840000e-02 0.000000e+00
4.672000e-01 5.840000e-02 0.000000e+00
4.818000e-01 5.840000e-02 0.000000e+00
4.964000e-01 5.840000e-02 0.000000e+00
5.110000e-01 5.840000e-02 0.000000e+00
5.256000e-01 5.840000e-02 0.000000e+00
5.402000e-01 5.840000e-02 0.000000e+00
5.548000e-01 5.840000e-02 0.000000e+00
5.694000e-01 5.840000e-02 0.000000e+00
5.840000e-01 5.840000e-02 0.000000e+00
0.000000e+00 7.300000e-02 0.000000e+00
1.460000e-02 7.300000e-02 0.000000e+00
2.920000e-02 7.300000e-02 0.000000e+00
4.380000e-02 7.300000e-02 0.000000e+00
5.840000e-02 7.300000e-02 0.000000e+00
7.300000e-02 7.300000e-02 0.000000e+00
8.760000e-02 7.300000e-02 0.000000e+00
1.022000e-01 7.300000e-02 0.000000e+00
1.168000e-01 7.300000e-02 0.000000e+00
1.314000e-01 7.300000e-02 0.000000e+00
1.460000e-01 7.300000e-02 0.000000e+00
1.606000e-01 7.300000e-02 0.000000e+00
1.752000e-01 7.300000e-02 0.000000e+00
1.898000e-01 7.300000e-02 0.000000e+00
2.044000e-01 7.300000e-02 0.000000e+00
2.190000e-01 7.300000e-02 0.000000e+00
2.336000e-01 7.300000e-02 0.000000e+00
2.482000e-01 7.300000e-02 0.000000e+00
2.628000e-01 7.300000e-02 0.000000e+00
2.774000e-01 7.300000e-02 0.000000e+00
2.920000e-01 7.300000e-02 0.000000e+00
3.066000e-01 7.300000e-02 0.000000e+00
3.212000e-01 7.300000e-02 0.000000e+00
3.358000e-01 7.300000e-02 0.000000e+00
3.504000e-01 7.300000e-02 0.000000e+00
3.650000e-01 7.300000e-02 0.000000e+00
3.796000e-01 7.300000e-02 0.000000e+00
3.942000e-01 7.300000e-02 0.000000e+00
4.088000e-01 7.300000e-02 0.000000e+00
4.234000e-01 7.300000e-02 0.000000e+00
4.380000e-01 7.300000e-02 0.000000e+00
4.526000e-01 7.300000e-02 0.000000e+00
4.672000e-01 7.300000e-02 0.000000e+00
4.818000e-01 7.300000e-02 0.000000e+00
4.964000e-01 7.300000e-02 0.000000e+00
5.110000e-01 7.300000e-02 0.000000e+00
5.256000e-01 7.300000e-02 0.000000e+00
5.402000e-01 7.300000e-02 0.000000e+00
5.548000e-01 7.300000e-02 0.000000e+00
5.694000e-01 7.300000e-02 0.000000e+00
5.840000e-01 7.300000e-02 0.000000e+00
0.000000e+00 8.760000e-02 0.000000e+00
1.460000e-02 8.760000e-02 0.000000e+00
2.920000e-02 8.760000e-02 0.000000e+00
4.380000e-02 8.760000e-02 0.000000e+00
5.840000e-02 8.760000e-02 0.000000e+00
7.300000e-02 8.760000e-02 0.000000e+00
8.760000e-02 8.760000e-02 0.000000e+00
1.022000e-01 8.760000e-02 0.000000e+00
[...]
POINT_DATA 11767
VECTORS Velocity float
0.000000e+00 0.000000e+00 0.000000e+00
1.181036e-02 0.000000e+00 0.000000e+00
1.879455e-02 0.000000e+00 0.000000e+00
2.365187e-02 0.000000e+00 0.000000e+00
2.683805e-02 0.000000e+00 0.000000e+00
2.910310e-02 0.000000e+00 0.000000e+00
3.056857e-02 0.000000e+00 0.000000e+00
3.122687e-02 0.000000e+00 0.000000e+00
3.098610e-02 0.000000e+00 0.000000e+00
3.001246e-02 0.000000e+00 0.000000e+00
2.864995e-02 0.000000e+00 0.000000e+00
2.742423e-02 0.000000e+00 0.000000e+00
2.688395e-02 0.000000e+00 0.000000e+00
2.767799e-02 0.000000e+00 0.000000e+00
3.008393e-02 0.000000e+00 0.000000e+00
3.386814e-02 0.000000e+00 0.000000e+00
3.870730e-02 0.000000e+00 0.000000e+00
4.426392e-02 0.000000e+00 0.000000e+00
5.027928e-02 0.000000e+00 0.000000e+00
5.647606e-02 0.000000e+00 0.000000e+00
6.257486e-02 0.000000e+00 0.000000e+00
6.830057e-02 0.000000e+00 0.000000e+00
7.338581e-02 0.000000e+00 0.000000e+00
7.765967e-02 0.000000e+00 0.000000e+00
8.100000e-02 0.000000e+00 0.000000e+00
8.344574e-02 0.000000e+00 0.000000e+00
8.507295e-02 0.000000e+00 0.000000e+00
8.611256e-02 0.000000e+00 0.000000e+00
8.671382e-02 0.000000e+00 0.000000e+00
8.710643e-02 0.000000e+00 0.000000e+00
8.734669e-02 0.000000e+00 0.000000e+00
8.749107e-02 0.000000e+00 0.000000e+00
8.747184e-02 0.000000e+00 0.000000e+00
8.702233e-02 0.000000e+00 0.000000e+00
8.599878e-02 0.000000e+00 0.000000e+00
8.393397e-02 0.000000e+00 0.000000e+00
7.992521e-02 0.000000e+00 0.000000e+00
7.451938e-02 0.000000e+00 0.000000e+00
6.197538e-02 0.000000e+00 0.000000e+00
4.685176e-02 0.000000e+00 0.000000e+00
0.000000e+00 0.000000e+00 0.000000e+00
0.000000e+00 -3.363203e-13 0.000000e+00
1.181036e-02 -3.536236e-13 0.000000e+00
1.879455e-02 -4.715244e-13 0.000000e+00
2.365187e-02 -6.614809e-13 0.000000e+00
2.683805e-02 -8.394758e-13 0.000000e+00
2.910310e-02 -9.116270e-13 0.000000e+00
3.056857e-02 -7.006379e-13 0.000000e+00
3.122687e-02 -4.582775e-13 0.000000e+00
3.098610e-02 -1.825354e-13 0.000000e+00
3.001246e-02 -6.741570e-14 0.000000e+00
2.864995e-02 7.364452e-14 0.000000e+00
2.742423e-02 1.255953e-13 0.000000e+00
2.688395e-02 2.695818e-13 0.000000e+00
2.767799e-02 2.058943e-13 0.000000e+00
3.008393e-02 3.002517e-14 0.000000e+00
3.386814e-02 -4.535565e-14 0.000000e+00
3.870730e-02 -1.437409e-13 0.000000e+00
4.426392e-02 -9.514203e-14 0.000000e+00
5.027928e-02 -9.641383e-14 0.000000e+00
5.647606e-02 -7.174004e-14 0.000000e+00
6.257486e-02 -6.555754e-14 0.000000e+00
6.830057e-02 -6.949522e-14 0.000000e+00
7.338581e-02 -1.042377e-13 0.000000e+00
7.765967e-02 -1.190709e-13 0.000000e+00
8.100000e-02 -1.642593e-13 0.000000e+00
8.344574e-02 -9.485684e-14 0.000000e+00
8.507295e-02 -1.248590e-13 0.000000e+00
8.611256e-02 -1.401523e-14 0.000000e+00
8.671382e-02 2.503973e-14 0.000000e+00
8.710643e-02 1.048907e-13 0.000000e+00
8.734669e-02 9.334907e-14 0.000000e+00
8.749107e-02 1.252717e-13 0.000000e+00
8.747184e-02 5.097957e-14 0.000000e+00
8.702233e-02 9.589324e-14 0.000000e+00
8.599878e-02 1.046903e-14 0.000000e+00
8.393397e-02 1.152261e-13 0.000000e+00
7.992521e-02 7.220671e-14 0.000000e+00
7.451938e-02 2.153457e-13 0.000000e+00
6.197538e-02 1.286937e-13 0.000000e+00
4.685176e-02 2.940885e-13 0.000000e+00
0.000000e+00 4.861420e-13 0.000000e+00
0.000000e+00 -5.292016e-13 0.000000e+00
1.181036e-02 -5.004906e-13 0.000000e+00
1.879455e-02 -6.734439e-13 0.000000e+00
2.365187e-02 -9.634250e-13 0.000000e+00
2.683805e-02 -1.193812e-12 0.000000e+00
2.910310e-02 -1.341967e-12 0.000000e+00
3.056857e-02 -1.045941e-12 0.000000e+00
3.122687e-02 -7.351621e-13 0.000000e+00
3.098610e-02 -3.286663e-13 0.000000e+00
3.001246e-02 -1.679433e-13 0.000000e+00
2.864995e-02 9.466169e-14 0.000000e+00
2.742423e-02 1.444463e-13 0.000000e+00
2.688395e-02 3.370126e-13 0.000000e+00
2.767799e-02 2.384869e-13 0.000000e+00
3.008393e-02 1.889460e-14 0.000000e+00
3.386814e-02 -1.010033e-13 0.000000e+00
3.870730e-02 -2.171137e-13 0.000000e+00
4.426392e-02 -1.751368e-13 0.000000e+00
5.027928e-02 -1.699951e-13 0.000000e+00
5.647606e-02 -1.302283e-13 0.000000e+00
6.257486e-02 -9.358105e-14 0.000000e+00
6.830057e-02 -9.896335e-14 0.000000e+00
7.338581e-02 -1.016434e-13 0.000000e+00
7.765967e-02 -1.035751e-13 0.000000e+00
8.100000e-02 -1.514419e-13 0.000000e+00
8.344574e-02 -7.669389e-14 0.000000e+00
8.507295e-02 -1.343573e-13 0.000000e+00
8.611256e-02 -1.428081e-14 0.000000e+00
8.671382e-02 4.321447e-15 0.000000e+00
8.710643e-02 1.380691e-13 0.000000e+00
8.734669e-02 1.454430e-13 0.000000e+00
8.749107e-02 2.068214e-13 0.000000e+00
8.747184e-02 1.196952e-13 0.000000e+00
8.702233e-02 1.156925e-13 0.000000e+00
8.599878e-02 5.870369e-14 0.000000e+00
8.393397e-02 1.347087e-13 0.000000e+00
7.992521e-02 1.410445e-13 0.000000e+00
7.451938e-02 2.560340e-13 0.000000e+00
6.197538e-02 2.342858e-13 0.000000e+00
4.685176e-02 3.757270e-13 0.000000e+00
0.000000e+00 7.230389e-13 0.000000e+00
0.000000e+00 -3.815575e-13 0.000000e+00
1.181036e-02 -4.038189e-13 0.000000e+00
1.879455e-02 -5.235284e-13 0.000000e+00
2.365187e-02 -7.368442e-13 0.000000e+00
2.683805e-02 -8.688563e-13 0.000000e+00
2.910310e-02 -1.045536e-12 0.000000e+00
3.056857e-02 -9.013406e-13 0.000000e+00
3.122687e-02 -7.200251e-13 0.000000e+00
3.098610e-02 -4.067057e-13 0.000000e+00
3.001246e-02 -2.651248e-13 0.000000e+00
2.864995e-02 2.497099e-14 0.000000e+00
2.742423e-02 3.331023e-14 0.000000e+00
2.688395e-02 1.776932e-13 0.000000e+00
2.767799e-02 6.326409e-14 0.000000e+00
3.008393e-02 -3.119081e-14 0.000000e+00
3.386814e-02 -1.141296e-13 0.000000e+00
3.870730e-02 -1.946089e-13 0.000000e+00
4.426392e-02 -1.609462e-13 0.000000e+00
5.027928e-02 -1.731446e-13 0.000000e+00
5.647606e-02 -1.345573e-13 0.000000e+00
6.257486e-02 -9.335935e-14 0.000000e+00
6.830057e-02 -7.221954e-14 0.000000e+00
7.338581e-02 -5.225228e-14 0.000000e+00
7.765967e-02 -2.804533e-14 0.000000e+00
8.100000e-02 -7.414709e-14 0.000000e+00
8.344574e-02 1.975035e-15 0.000000e+00
8.507295e-02 -1.022893e-13 0.000000e+00
8.611256e-02 4.134908e-16 0.000000e+00
8.671382e-02 -1.058653e-14 0.000000e+00
8.710643e-02 1.346570e-13 0.000000e+00
8.734669e-02 1.603877e-13 0.000000e+00
8.749107e-02 2.431685e-13 0.000000e+00
8.747184e-02 1.397089e-13 0.000000e+00
8.702233e-02 1.357235e-13 0.000000e+00
8.599878e-02 6.126843e-14 0.000000e+00
8.393397e-02 1.528626e-13 0.000000e+00
7.992521e-02 1.138521e-13 0.000000e+00
7.451938e-02 2.618651e-13 0.000000e+00
6.197538e-02 1.792534e-13 0.000000e+00
4.685176e-02 3.947486e-13 0.000000e+00
0.000000e+00 7.046146e-13 0.000000e+00
0.000000e+00 -2.360454e-13 0.000000e+00
1.181036e-02 -2.408862e-13 0.000000e+00
1.879455e-02 -2.758365e-13 0.000000e+00
2.365187e-02 -3.398026e-13 0.000000e+00
2.683805e-02 -3.363052e-13 0.000000e+00
2.910310e-02 -4.913286e-13 0.000000e+00
3.056857e-02 -5.282309e-13 0.000000e+00
3.122687e-02 -5.318154e-13 0.000000e+00
3.098610e-02 -3.763095e-13 0.000000e+00
3.001246e-02 -2.928183e-13 0.000000e+00
2.864995e-02 -5.013494e-14 0.000000e+00
2.742423e-02 -9.410798e-14 0.000000e+00
2.688395e-02 -1.392434e-14 0.000000e+00
2.767799e-02 -1.153386e-13 0.000000e+00
3.008393e-02 -5.709786e-14 0.000000e+00
3.386814e-02 -9.889777e-14 0.000000e+00
3.870730e-02 -9.222954e-14 0.000000e+00
4.426392e-02 -8.888411e-14 0.000000e+00
5.027928e-02 -9.337589e-14 0.000000e+00
5.647606e-02 -7.799706e-14 0.000000e+00
6.257486e-02 -4.586228e-14 0.000000e+00
6.830057e-02 -5.342556e-14 0.000000e+00
7.338581e-02 -3.801981e-14 0.000000e+00
7.765967e-02 -3.428393e-14 0.000000e+00
8.100000e-02 -7.937947e-14 0.000000e+00
8.344574e-02 -1.326461e-14 0.000000e+00
8.507295e-02 -9.274581e-14 0.000000e+00
8.611256e-02 5.044588e-15 0.000000e+00
8.671382e-02 4.878324e-15 0.000000e+00
8.710643e-02 1.278810e-13 0.000000e+00
8.734669e-02 1.433022e-13 0.000000e+00
8.749107e-02 2.220301e-13 0.000000e+00
8.747184e-02 1.300954e-13 0.000000e+00
8.702233e-02 1.296304e-13 0.000000e+00
8.599878e-02 6.250969e-14 0.000000e+00
8.393397e-02 1.268685e-13 0.000000e+00
7.992521e-02 1.075179e-13 0.000000e+00
7.451938e-02 2.101321e-13 0.000000e+00
6.197538e-02 1.763589e-13 0.000000e+00
4.685176e-02 3.013133e-13 0.000000e+00
0.000000e+00 5.942466e-13 0.000000e+00
0.000000e+00 -1.685331e-13 0.000000e+00
1.181036e-02 -1.267856e-13 0.000000e+00
1.879455e-02 -1.176328e-13 0.000000e+00
2.365187e-02 -1.163772e-13 0.000000e+00
2.683805e-02 -8.899609e-14 0.000000e+00
2.910310e-02 -1.664404e-13 0.000000e+00
3.056857e-02 -2.388218e-13 0.000000e+00
3.122687e-02 -2.640718e-13 0.000000e+00
3.098610e-02 -2.265914e-13 0.000000e+00
3.001246e-02 -1.880019e-13 0.000000e+00
2.864995e-02 -6.131077e-14 0.000000e+00
2.742423e-02 -9.597843e-14 0.000000e+00
2.688395e-02 -6.331144e-14 0.000000e+00
2.767799e-02 -1.324510e-13 0.000000e+00
3.008393e-02 -5.425895e-14 0.000000e+00
3.386814e-02 -5.514430e-14 0.000000e+00
3.870730e-02 -3.754825e-14 0.000000e+00
4.426392e-02 -1.937731e-14 0.000000e+00
5.027928e-02 -2.646394e-14 0.000000e+00
5.647606e-02 -2.738500e-14 0.000000e+00
6.257486e-02 -2.301027e-14 0.000000e+00
6.830057e-02 -3.349097e-14 0.000000e+00
7.338581e-02 -6.001765e-14 0.000000e+00
7.765967e-02 -6.340435e-14 0.000000e+00
8.100000e-02 -1.043825e-13 0.000000e+00
8.344574e-02 -4.035496e-14 0.000000e+00
8.507295e-02 -9.289283e-14 0.000000e+00
8.611256e-02 9.046156e-16 0.000000e+00
8.671382e-02 2.011681e-14 0.000000e+00
8.710643e-02 9.662259e-14 0.000000e+00
8.734669e-02 9.283424e-14 0.000000e+00
8.749107e-02 1.415767e-13 0.000000e+00
8.747184e-02 6.650587e-14 0.000000e+00
8.702233e-02 1.080360e-13 0.000000e+00
8.599878e-02 1.498430e-14 0.000000e+00
8.393397e-02 1.039362e-13 0.000000e+00
7.992521e-02 3.947133e-14 0.000000e+00
7.451938e-02 1.671125e-13 0.000000e+00
6.197538e-02 7.050602e-14 0.000000e+00
4.685176e-02 2.344118e-13 0.000000e+00
0.000000e+00 3.836374e-13 0.000000e+00
0.000000e+00 0.000000e+00 0.000000e+00
1.181036e-02 0.000000e+00 0.000000e+00
1.879455e-02 0.000000e+00 0.000000e+00
2.365187e-02 0.000000e+00 0.000000e+00
2.683805e-02 0.000000e+00 0.000000e+00
2.910310e-02 0.000000e+00 0.000000e+00
3.056857e-02 0.000000e+00 0.000000e+00
3.122687e-02 0.000000e+00 0.000000e+00
3.098610e-02 0.000000e+00 0.000000e+00
3.001246e-02 0.000000e+00 0.000000e+00
2.864995e-02 0.000000e+00 0.000000e+00
2.742423e-02 0.000000e+00 0.000000e+00
2.688395e-02 0.000000e+00 0.000000e+00
2.767799e-02 0.000000e+00 0.000000e+00
3.008393e-02 0.000000e+00 0.000000e+00
3.386814e-02 0.000000e+00 0.000000e+00
3.870730e-02 0.000000e+00 0.000000e+00
4.426392e-02 0.000000e+00 0.000000e+00
5.027928e-02 0.000000e+00 0.000000e+00
5.647606e-02 0.000000e+00 0.000000e+00
6.257486e-02 0.000000e+00 0.000000e+00
6.830057e-02 0.000000e+00 0.000000e+00
7.338581e-02 0.000000e+00 0.000000e+00
7.765967e-02 0.000000e+00 0.000000e+00
8.100000e-02 0.000000e+00 0.000000e+00
8.344574e-02 0.000000e+00 0.000000e+00
8.507295e-02 0.000000e+00 0.000000e+00
8.611256e-02 0.000000e+00 0.000000e+00
8.671382e-02 0.000000e+00 0.000000e+00
8.710643e-02 0.000000e+00 0.000000e+00
8.734669e-02 0.000000e+00 0.000000e+00
8.749107e-02 0.000000e+00 0.000000e+00
8.747184e-02 0.000000e+00 0.000000e+00
8.702233e-02 0.000000e+00 0.000000e+00
8.599878e-02 0.000000e+00 0.000000e+00
8.393397e-02 0.000000e+00 0.000000e+00
7.992521e-02 0.000000e+00 0.000000e+00
7.451938e-02 0.000000e+00 0.000000e+00
6.197538e-02 0.000000e+00 0.000000e+00
4.685176e-02 0.000000e+00 0.000000e+00
0.000000e+00 0.000000e+00 0.000000e+00
0.000000e+00 0.000000e+00 -1.067834e-02
-9.808894e-04 0.000000e+00 -8.682453e-03
-6.694704e-04 0.000000e+00 -6.312160e-03
-3.394154e-04 0.000000e+00 -5.201381e-03
-2.964486e-04 0.000000e+00 -4.147263e-03
-8.342474e-04 0.000000e+00 -3.410463e-03
-2.107176e-03 0.000000e+00 -2.625420e-03
-4.052144e-03 0.000000e+00 -1.840080e-03
-6.504841e-03 0.000000e+00 -1.127531e-03
-9.206917e-03 0.000000e+00 -7.073199e-04
-1.175177e-02 0.000000e+00 -7.475215e-04
-1.363771e-02 0.000000e+00 -1.319775e-03
-1.445659e-02 0.000000e+00 -2.373170e-03
-1.425197e-02 0.000000e+00 -3.739418e-03
-1.312991e-02 0.000000e+00 -5.080978e-03
-1.112675e-02 0.000000e+00 -6.157987e-03
-8.460496e-03 0.000000e+00 -6.944002e-03
-5.284023e-03 0.000000e+00 -7.461344e-03
-1.822840e-03 0.000000e+00 -7.764323e-03
1.870018e-03 0.000000e+00 -7.838380e-03
5.605143e-03 0.000000e+00 -7.679992e-03
9.277205e-03 0.000000e+00 -7.274599e-03
1.265801e-02 0.000000e+00 -6.668327e-03
1.565407e-02 0.000000e+00 -5.914329e-03
1.810949e-02 0.000000e+00 -5.116457e-03
2.006105e-02 0.000000e+00 -4.356550e-03
2.149853e-02 0.000000e+00 -3.746951e-03
2.265725e-02 0.000000e+00 -3.336794e-03
2.371290e-02 0.000000e+00 -3.154072e-03
2.502348e-02 0.000000e+00 -3.152697e-03
2.664470e-02 0.000000e+00 -3.191817e-03
2.859029e-02 0.000000e+00 -3.179966e-03
3.048115e-02 0.000000e+00 -2.952327e-03
3.219757e-02 0.000000e+00 -2.465421e-03
3.328829e-02 0.000000e+00 -1.848094e-03
3.359230e-02 0.000000e+00 -1.718769e-04
3.260151e-02 0.000000e+00 5.383308e-04
3.024949e-02 0.000000e+00 5.349927e-03
2.491318e-02 0.000000e+00 6.768948e-03
1.667892e-02 0.000000e+00 2.162344e-02
0.000000e+00 0.000000e+00 4.065253e-02
0.000000e+00 1.361736e-14 -1.067834e-02
-9.808894e-04 6.505152e-14 -8.682453e-03
-6.694704e-04 1.645441e-13 -6.312160e-03
-3.394154e-04 3.398018e-13 -5.201381e-03
-2.964486e-04 4.266072e-13 -4.147263e-03
-8.342474e-04 3.727795e-13 -3.410463e-03
-2.107176e-03 3.499225e-14 -2.625420e-03
-4.052144e-03 -2.392440e-13 -1.840080e-03
-6.504841e-03 -4.784308e-13 -1.127531e-03
-9.206917e-03 -5.157901e-13 -7.073199e-04
-1.175177e-02 -5.053357e-13 -7.475215e-04
-1.363771e-02 -5.048004e-13 -1.319775e-03
-1.445659e-02 -5.112148e-13 -2.373170e-03
-1.425197e-02 -4.351454e-13 -3.739418e-03
-1.312991e-02 -1.914742e-13 -5.080978e-03
-1.112675e-02 -9.803691e-14 -6.157987e-03
-8.460496e-03 -1.546837e-14 -6.944002e-03
-5.284023e-03 -3.164191e-14 -7.461344e-03
-1.822840e-03 -5.758124e-14 -7.764323e-03
1.870018e-03 -1.056116e-13 -7.838380e-03
5.605143e-03 -5.284714e-14 -7.679992e-03
9.277205e-03 -8.478907e-14 -7.274599e-03
1.265801e-02 -2.433382e-14 -6.668327e-03
1.565407e-02 -5.188237e-14 -5.914329e-03
1.810949e-02 -5.822766e-14 -5.116457e-03
2.006105e-02 -1.892275e-13 -4.356550e-03
2.149853e-02 -3.144951e-13 -3.746951e-03
2.265725e-02 -3.845207e-13 -3.336794e-03
2.371290e-02 -4.817219e-13 -3.154072e-03
2.502348e-02 -3.742723e-13 -3.152697e-03
2.664470e-02 -1.600409e-13 -3.191817e-03
2.859029e-02 1.188758e-13 -3.179966e-03
3.048115e-02 2.063255e-13 -2.952327e-03
3.219757e-02 2.835326e-13 -2.465421e-03
3.328829e-02 1.007422e-13 -1.848094e-03
3.359230e-02 9.988015e-14 -1.718769e-04
3.260151e-02 -1.346003e-13 5.383308e-04
3.024949e-02 -3.204326e-14 5.349927e-03
2.491318e-02 -2.197277e-13 6.768948e-03
1.667892e-02 -6.944761e-14 2.162344e-02
0.000000e+00 -3.137582e-13 4.065253e-02
0.000000e+00 -2.983906e-15 -1.067834e-02
-9.808894e-04 4.924517e-14 -8.682453e-03
-6.694704e-04 1.634021e-13 -6.312160e-03
-3.394154e-04 4.079999e-13 -5.201381e-03
-2.964486e-04 5.036030e-13 -4.147263e-03
-8.342474e-04 4.542857e-13 -3.410463e-03
-2.107176e-03 3.022236e-14 -2.625420e-03
-4.052144e-03 -3.697196e-13 -1.840080e-03
-6.504841e-03 -6.685902e-13 -1.127531e-03
-9.206917e-03 -7.469312e-13 -7.073199e-04
-1.175177e-02 -7.368241e-13 -7.475215e-04
-1.363771e-02 -7.303127e-13 -1.319775e-03
-1.445659e-02 -7.153939e-13 -2.373170e-03
-1.425197e-02 -5.859241e-13 -3.739418e-03
-1.312991e-02 -2.672272e-13 -5.080978e-03
-1.112675e-02 -1.355671e-13 -6.157987e-03
-8.460496e-03 -1.573530e-15 -6.944002e-03
-5.284023e-03 -4.503584e-14 -7.461344e-03
-1.822840e-03 -2.622200e-14 -7.764323e-03
1.870018e-03 -1.159447e-13 -7.838380e-03
5.605143e-03 -5.130229e-14 -7.679992e-03
9.277205e-03 -1.038532e-13 -7.274599e-03
1.265801e-02 7.007547e-15 -6.668327e-03
1.565407e-02 -2.187860e-14 -5.914329e-03
1.810949e-02 1.666702e-14 -5.116457e-03
2.006105e-02 -8.679709e-14 -4.356550e-03
2.149853e-02 -1.470263e-13 -3.746951e-03
2.265725e-02 -2.685168e-13 -3.336794e-03
2.371290e-02 -4.367223e-13 -3.154072e-03
2.502348e-02 -4.981253e-13 -3.152697e-03
2.664470e-02 -4.679538e-13 -3.191817e-03
2.859029e-02 -2.384524e-13 -3.179966e-03
3.048115e-02 -1.168466e-13 -2.952327e-03
3.219757e-02 1.383505e-13 -2.465421e-03
3.328829e-02 5.142825e-14 -1.848094e-03
3.359230e-02 8.494940e-14 -1.718769e-04
3.260151e-02 -9.767344e-14 5.383308e-04
3.024949e-02 -3.708033e-14 5.349927e-03
2.491318e-02 -1.342084e-13 6.768948e-03
1.667892e-02 -9.251589e-14 2.162344e-02
0.000000e+00 -3.776607e-13 4.065253e-02
0.000000e+00 -5.301055e-14 -1.067834e-02
-9.808894e-04 -2.656255e-14 -8.682453e-03
-6.694704e-04 8.554806e-15 -6.312160e-03
-3.394154e-04 1.337634e-13 -5.201381e-03
-2.964486e-04 1.209369e-13 -4.147263e-03
-8.342474e-04 1.374972e-13 -3.410463e-03
-2.107176e-03 -7.759648e-14 -2.625420e-03
-4.052144e-03 -3.002575e-13 -1.840080e-03
-6.504841e-03 -5.015628e-13 -1.127531e-03
-9.206917e-03 -5.813049e-13 -7.073199e-04
-1.175177e-02 -6.061832e-13 -7.475215e-04
-1.363771e-02 -5.569384e-13 -1.319775e-03
-1.445659e-02 -5.231140e-13 -2.373170e-03
-1.425197e-02 -3.882414e-13 -3.739418e-03
-1.312991e-02 -1.930316e-13 -5.080978e-03
-1.112675e-02 -9.858568e-14 -6.157987e-03
-8.460496e-03 1.266237e-15 -6.944002e-03
-5.284023e-03 -1.626695e-14 -7.461344e-03
-1.822840e-03 -6.038713e-16 -7.764323e-03
1.870018e-03 -8.555225e-14 -7.838380e-03
5.605143e-03 -9.449458e-15 -7.679992e-03
9.277205e-03 -7.664821e-14 -7.274599e-03
1.265801e-02 3.112558e-14 -6.668327e-03
1.565407e-02 3.914932e-14 -5.914329e-03
1.810949e-02 1.153904e-13 -5.116457e-03
2.006105e-02 8.239951e-14 -4.356550e-03
2.149853e-02 9.696329e-14 -3.746951e-03
2.265725e-02 4.309420e-14 -3.336794e-03
2.371290e-02 -1.814331e-13 -3.154072e-03
2.502348e-02 -4.067672e-13 -3.152697e-03
2.664470e-02 -6.679578e-13 -3.191817e-03
2.859029e-02 -6.184913e-13 -3.179966e-03
3.048115e-02 -5.113531e-13 -2.952327e-03
3.219757e-02 -1.084161e-13 -2.465421e-03
3.328829e-02 -8.869568e-14 -1.848094e-03
3.359230e-02 7.212984e-14 -1.718769e-04
3.260151e-02 -9.220931e-14 5.383308e-04
3.024949e-02 2.690636e-14 5.349927e-03
2.491318e-02 -1.272170e-13 6.768948e-03
1.667892e-02 4.653797e-15 2.162344e-02
0.000000e+00 -3.529174e-13 4.065253e-02
0.000000e+00 -1.038902e-13 -1.067834e-02
-9.808894e-04 -1.164058e-13 -8.682453e-03
-6.694704e-04 -1.249159e-13 -6.312160e-03
-3.394154e-04 -1.342517e-13 -5.201381e-03
-2.964486e-04 -2.383729e-13 -4.147263e-03
-8.342474e-04 -1.962061e-13 -3.410463e-03
-2.107176e-03 -1.522500e-13 -2.625420e-03
-4.052144e-03 -1.642544e-13 -1.840080e-03
-6.504841e-03 -1.887063e-13 -1.127531e-03
-9.206917e-03 -2.567401e-13 -7.073199e-04
-1.175177e-02 -2.840265e-13 -7.475215e-04
-1.363771e-02 -2.158041e-13 -1.319775e-03
-1.445659e-02 -1.607495e-13 -2.373170e-03
-1.425197e-02 -8.166901e-14 -3.739418e-03
-1.312991e-02 -6.539437e-14 -5.080978e-03
-1.112675e-02 -4.259298e-14 -6.157987e-03
-8.460496e-03 -2.706327e-14 -6.944002e-03
-5.284023e-03 -3.713477e-14 -7.461344e-03
-1.822840e-03 -2.106949e-14 -7.764323e-03
1.870018e-03 -9.678595e-14 -7.838380e-03
5.605143e-03 -3.426225e-14 -7.679992e-03
9.277205e-03 -8.749874e-14 -7.274599e-03
1.265801e-02 1.977940e-14 -6.668327e-03
1.565407e-02 3.245331e-15 -5.914329e-03
1.810949e-02 8.062111e-14 -5.116457e-03
2.006105e-02 3.367789e-14 -4.356550e-03
2.149853e-02 3.493427e-14 -3.746951e-03
2.265725e-02 -4.349085e-14 -3.336794e-03
2.371290e-02 -2.144208e-13 -3.154072e-03
2.502348e-02 -3.702949e-13 -3.152697e-03
2.664470e-02 -5.138975e-13 -3.191817e-03
2.859029e-02 -4.800679e-13 -3.179966e-03
3.048115e-02 -4.135800e-13 -2.952327e-03
3.219757e-02 -1.251026e-13 -2.465421e-03
3.328829e-02 -1.045740e-13 -1.848094e-03
3.359230e-02 1.560334e-14 -1.718769e-04
3.260151e-02 -8.955415e-14 5.383308e-04
3.024949e-02 -1.079427e-14 5.349927e-03
2.491318e-02 -8.670943e-14 6.768948e-03
1.667892e-02 -1.025313e-14 2.162344e-02
0.000000e+00 -2.577269e-13 4.065253e-02
0.000000e+00 -7.820303e-14 -1.067834e-02
-9.808894e-04 -1.048388e-13 -8.682453e-03
-6.694704e-04 -1.335739e-13 -6.312160e-03
-3.394154e-04 -1.421548e-13 -5.201381e-03
-2.964486e-04 -2.353774e-13 -4.147263e-03
-8.342474e-04 -1.754313e-13 -3.410463e-03