# vtk DataFile Version 3.0
vtk output
ASCII
DATASET UNSTRUCTURED_GRID
POINTS 11767 float
0.000000e+00 0.000000e+00 0.000000e+00
1.460000e-02 0.000000e+00 0.000000e+00
2.920000e-02 0.000000e+00 0.000000e+00
4.380000e-02 0.000000e+00 0.000000e+00
5.840000e-02 0.000000e+00 0.000000e+00
7.300000e-02 0.000000e+00 0.000000e+00
8.760000e-02 0.000000e+00 0.000000e+00
1.022000e-01 0.000000e+00 0.000000e+00
1.168000e-01 0.000000e+00 0.000000e+00
1.314000e-01 0.000000e+00 0.000000e+00
1.460000e-01 0.000000e+00 0.000000e+00
1.606000e-01 0.000000e+00 0.000000e+00
1.752000e-01 0.000000e+00 0.000000e+00
1.898000e-01 0.000000e+00 0.000000e+00
2.044000e-01 0.000000e+00 0.000000e+00
2.190000e-01 0.000000e+00 0.000000e+00
2.336000e-01 0.000000e+00 0.000000e+00
2.482000e-01 0.000000e+00 0.000000e+00
2.628000e-01 0.000000e+00 0.000000e+00
2.774000e-01 0.000000e+00 0.000000e+00
2.920000e-01 0.000000e+00 0.000000e+00
3.066000e-01 0.000000e+00 0.000000e+00
3.212000e-01 0.000000e+00 0.000000e+00
3.358000e-01 0.000000e+00 0.000000e+00
3.504000e-01 0.000000e+00 0.000000e+00
3.650000e-01 0.000000e+00 0.000000e+00
3.796000e-01 0.000000e+00 0.000000e+00
3.942000e-01 0.000000e+00 0.000000e+00
4.088000e-01 0.000000e+00 0.000000e+00
4.234000e-01 0.000000e+00 0.000000e+00
4.380000e-01 0.000000e+00 0.000000e+00
4.526000e-01 0.000000e+00 0.000000e+00
4.672000e-01 0.000000e+00 0.000000e+00
4.818000e-01 0.000000e+00 0.000000e+00
4.964000e-01 0.000000e+00 0.000000e+00
5.110000e-01 0.000000e+00 0.000000e+00
5.256000e-01 0.000000e+00 0.000000e+00
5.402000e-01 0.000000e+00 0.000000e+00
5.548000e-01 0.000000e+00 0.000000e+00
5.694000e-01 0.000000e+00 0.000000e+00
5.840000e-01 0.000000e+00 0.000000e+00
0.000000e+00 1.460000e-02 0.000000e+00
1.460000e-02 1.460000e-02 0.000000e+00
2.920000e-02 1.460000e-02 0.000000e+00
4.380000e-02 1.460000e-02 0.000000e+00
5.840000e-02 1.460000e-02 0.000000e+00
7.300000e-02 1.460000e-02 0.000000e+00
8.760000e-02 1.460000e-02 0.000000e+00
1.022000e-01 1.460000e-02 0.000000e+00
1.168000e-01 1.460000e-02 0.000000e+00
1.314000e-01 1.460000e-02 0.000000e+00
1.460000e-01 1.460000e-02 0.000000e+00
1.606000e-01 1.460000e-02 0.000000e+00
1.752000e-01 1.460000e-02 0.000000e+00
1.898000e-01 1.460000e-02 0.000000e+00
2.044000e-01 1.460000e-02 0.000000e+00
2.190000e-01 1.460000e-02 0.000000e+00
2.336000e-01 1.460000e-02 0.000000e+00
2.482000e-01 1.460000e-02 0.000000e+00
2.628000e-01 1.460000e-02 0.000000e+00
2.774000e-01 1.460000e-02 0.000000e+00
2.920000e-01 1.460000e-02 0.000000e+00
3.066000e-01 1.460000e-02 0.000000e+00
3.212000e-01 1.460000e-02 0.000000e+00
3.358000e-01 1.460000e-02 0.000000e+00
3.504000e-01 1.460000e-02 0.000000e+00
3.650000e-01 1.460000e-02 0.000000e+00
3.796000e-01 1.460000e-02 0.000000e+00
3.942000e-01 1.460000e-02 0.000000e+00
4.088000e-01 1.460000e-02 0.000000e+00
4.234000e-01 1.460000e-02 0.000000e+00
4.380000e-01 1.460000e-02 0.000000e+00
4.526000e-01 1.460000e-02 0.000000e+00
4.672000e-01 1.460000e-02 0.000000e+00
4.818000e-01 1.460000e-02 0.000000e+00
4.964000e-01 1.460000e-02 0.000000e+00
5.110000e-01 1.460000e-02 0.000000e+00
5.256000e-01 1.460000e-02 0.000000e+00
5.402000e-01 1.460000e-02 0.000000e+00
5.548000e-01 1.460000e-02 0.000000e+00
5.694000e-01 1.460000e-02 0.000000e+00
5.840000e-01 1.460000e-02 0.000000e+00
0.000000e+00 2.920000e-02 0.000000e+00
1.460000e-02 2.920000e-02 0.000000e+00
2.920000e-02 2.920000e-02 0.000000e+00
4.380000e-02 2.920000e-02 0.000000e+00
5.840000e-02 2.920000e-02 0.000000e+00
7.300000e-02 2.920000e-02 0.000000e+00
8.760000e-02 2.920000e-02 0.000000e+00
1.022000e-01 2.920000e-02 0.000000e+00
1.168000e-01 2.920000e-02 0.000000e+00
1.314000e-01 2.920000e-02 0.000000e+00
1.460000e-01 2.920000e-02 0.000000e+00
1.606000e-01 2.920000e-02 0.000000e+00
1.752000e-01 2.920000e-02 0.000000e+00
1.898000e-01 2.920000e-02 0.000000e+00
2.044000e-01 2.920000e-02 0.000000e+00
2.190000e-01 2.920000e-02 0.000000e+00
2.336000e-01 2.920000e-02 0.000000e+00
2.482000e-01 2.920000e-02 0.000000e+00
2.628000e-01 2.920000e-02 0.000000e+00
2.774000e-01 2.920000e-02 0.000000e+00
2.920000e-01 2.920000e-02 0.000000e+00
3.066000e-01 2.920000e-02 0.000000e+00
3.212000e-01 2.920000e-02 0.000000e+00
3.358000e-01 2.920000e-02 0.000000e+00
3.504000e-01 2.920000e-02 0.000000e+00
3.650000e-01 2.920000e-02 0.000000e+00
3.796000e-01 2.920000e-02 0.000000e+00
3.942000e-01 2.920000e-02 0.000000e+00
4.088000e-01 2.920000e-02 0.000000e+00
4.234000e-01 2.920000e-02 0.000000e+00
4.380000e-01 2.920000e-02 0.000000e+00
4.526000e-01 2.920000e-02 0.000000e+00
4.672000e-01 2.920000e-02 0.000000e+00
4.818000e-01 2.920000e-02 0.000000e+00
4.964000e-01 2.920000e-02 0.000000e+00
5.110000e-01 2.920000e-02 0.000000e+00
5.256000e-01 2.920000e-02 0.000000e+00
5.402000e-01 2.920000e-02 0.000000e+00
5.548000e-01 2.920000e-02 0.000000e+00
5.694000e-01 2.920000e-02 0.000000e+00
5.840000e-01 2.920000e-02 0.000000e+00
0.000000e+00 4.380000e-02 0.000000e+00
1.460000e-02 4.380000e-02 0.000000e+00
2.920000e-02 4.380000e-02 0.000000e+00
4.380000e-02 4.380000e-02 0.000000e+00
5.840000e-02 4.380000e-02 0.000000e+00
7.300000e-02 4.380000e-02 0.000000e+00
8.760000e-02 4.380000e-02 0.000000e+00
1.022000e-01 4.380000e-02 0.000000e+00
1.168000e-01 4.380000e-02 0.000000e+00
1.314000e-01 4.380000e-02 0.000000e+00
1.460000e-01 4.380000e-02 0.000000e+00
1.606000e-01 4.380000e-02 0.000000e+00
1.752000e-01 4.380000e-02 0.000000e+00
1.898000e-01 4.380000e-02 0.000000e+00
2.044000e-01 4.380000e-02 0.000000e+00
2.190000e-01 4.380000e-02 0.000000e+00
2.336000e-01 4.380000e-02 0.000000e+00
2.482000e-01 4.380000e-02 0.000000e+00
2.628000e-01 4.380000e-02 0.000000e+00
2.774000e-01 4.380000e-02 0.000000e+00
2.920000e-01 4.380000e-02 0.000000e+00
3.066000e-01 4.380000e-02 0.000000e+00
3.212000e-01 4.380000e-02 0.000000e+00
3.358000e-01 4.380000e-02 0.000000e+00
3.504000e-01 4.380000e-02 0.000000e+00
3.650000e-01 4.380000e-02 0.000000e+00
3.796000e-01 4.380000e-02 0.000000e+00
3.942000e-01 4.380000e-02 0.000000e+00
4.088000e-01 4.380000e-02 0.000000e+00
4.234000e-01 4.380000e-02 0.000000e+00
4.380000e-01 4.380000e-02 0.000000e+00
4.526000e-01 4.380000e-02 0.000000e+00
4.672000e-01 4.380000e-02 0.000000e+00
4.818000e-01 4.380000e-02 0.000000e+00
4.964000e-01 4.380000e-02 0.000000e+00
5.110000e-01 4.380000e-02 0.000000e+00
5.256000e-01 4.380000e-02 0.000000e+00
5.402000e-01 4.380000e-02 0.000000e+00
5.548000e-01 4.380000e-02 0.000000e+00
5.694000e-01 4.380000e-02 0.000000e+00
5.840000e-01 4.380000e-02 0.000000e+00
0.000000e+00 5.840000e-02 0.000000e+00
1.460000e-02 5.840000e-02 0.000000e+00
2.920000e-02 5.840000e-02 0.000000e+00
4.380000e-02 5.840000e-02 0.000000e+00
5.840000e-02 5.840000e-02 0.000000e+00
7.300000e-02 5.840000e-02 0.000000e+00
8.760000e-02 5.840000e-02 0.000000e+00
1.022000e-01 5.840000e-02 0.000000e+00
1.168000e-01 5.840000e-02 0.000000e+00
1.314000e-01 5.840000e-02 0.000000e+00
1.460000e-01 5.840000e-02 0.000000e+00
1.606000e-01 5.840000e-02 0.000000e+00
1.752000e-01 5.840000e-02 0.000000e+00
1.898000e-01 5.840000e-02 0.000000e+00
2.044000e-01 5.840000e-02 0.000000e+00
2.190000e-01 5.840000e-02 0.000000e+00
2.336000e-01 5.840000e-02 0.000000e+00
2.482000e-01 5.840000e-02 0.000000e+00
2.628000e-01 5.840000e-02 0.000000e+00
2.774000e-01 5.840000e-02 0.000000e+00
2.920000e-01 5.840000e-02 0.000000e+00
3.066000e-01 5.840000e-02 0.000000e+00
3.212000e-01 5.840000e-02 0.000000e+00
3.358000e-01 5.840000e-02 0.000000e+00
3.504000e-01 5.840000e-02 0.000000e+00
3.650000e-01 5.840000e-02 0.000000e+00
3.796000e-01 5.840000e-02 0.000000e+00
3.942000e-01 5.840000e-02 0.000000e+00
4.088000e-01 5.840000e-02 0.000000e+00
4.234000e-01 5.840000e-02 0.000000e+00
4.380000e-01 5.840000e-02 0.000000e+00
4.526000e-01 5.840000e-02 0.000000e+00
4.672000e-01 5.840000e-02 0.000000e+00
4.818000e-01 5.840000e-02 0.000000e+00
4.964000e-01 5.840000e-02 0.000000e+00
5.110000e-01 5.840000e-02 0.000000e+00
5.256000e-01 5.840000e-02 0.000000e+00
5.402000e-01 5.840000e-02 0.000000e+00
5.548000e-01 5.840000e-02 0.000000e+00
5.694000e-01 5.840000e-02 0.000000e+00
5.840000e-01 5.840000e-02 0.000000e+00
0.000000e+00 7.300000e-02 0.000000e+00
1.460000e-02 7.300000e-02 0.000000e+00
2.920000e-02 7.300000e-02 0.000000e+00
4.380000e-02 7.300000e-02 0.000000e+00
5.840000e-02 7.300000e-02 0.000000e+00
7.300000e-02 7.300000e-02 0.000000e+00
8.760000e-02 7.300000e-02 0.000000e+00
1.022000e-01 7.300000e-02 0.000000e+00
1.168000e-01 7.300000e-02 0.000000e+00
1.314000e-01 7.300000e-02 0.000000e+00
1.460000e-01 7.300000e-02 0.000000e+00
1.606000e-01 7.300000e-02 0.000000e+00
1.752000e-01 7.300000e-02 0.000000e+00
1.898000e-01 7.300000e-02 0.000000e+00
2.044000e-01 7.300000e-02 0.000000e+00
2.190000e-01 7.300000e-02 0.000000e+00
2.336000e-01 7.300000e-02 0.000000e+00
2.482000e-01 7.300000e-02 0.000000e+00
2.628000e-01 7.300000e-02 0.000000e+00
2.774000e-01 7.300000e-02 0.000000e+00
2.920000e-01 7.300000e-02 0.000000e+00
3.066000e-01 7.300000e-02 0.000000e+00
3.212000e-01 7.300000e-02 0.000000e+00
3.358000e-01 7.300000e-02 0.000000e+00
3.504000e-01 7.300000e-02 0.000000e+00
3.650000e-01 7.300000e-02 0.000000e+00
3.796000e-01 7.300000e-02 0.000000e+00
3.942000e-01 7.300000e-02 0.000000e+00
4.088000e-01 7.300000e-02 0.000000e+00
4.234000e-01 7.300000e-02 0.000000e+00
4.380000e-01 7.300000e-02 0.000000e+00
4.526000e-01 7.300000e-02 0.000000e+00
4.672000e-01 7.300000e-02 0.000000e+00
4.818000e-01 7.300000e-02 0.000000e+00
4.964000e-01 7.300000e-02 0.000000e+00
5.110000e-01 7.300000e-02 0.000000e+00
5.256000e-01 7.300000e-02 0.000000e+00
5.402000e-01 7.300000e-02 0.000000e+00
5.548000e-01 7.300000e-02 0.000000e+00
5.694000e-01 7.300000e-02 0.000000e+00
5.840000e-01 7.300000e-02 0.000000e+00
0.000000e+00 8.760000e-02 0.000000e+00
1.460000e-02 8.760000e-02 0.000000e+00
2.920000e-02 8.760000e-02 0.000000e+00
4.380000e-02 8.760000e-02 0.000000e+00
5.840000e-02 8.760000e-02 0.000000e+00
7.300000e-02 8.760000e-02 0.000000e+00
8.760000e-02 8.760000e-02 0.000000e+00
1.022000e-01 8.760000e-02 0.000000e+00
[...]
POINT_DATA 11767
VECTORS Velocity float
0.000000e+00 0.000000e+00 0.000000e+00
-3.218201e-02 0.000000e+00 0.000000e+00
-3.138955e-02 0.000000e+00 0.000000e+00
-3.563485e-02 0.000000e+00 0.000000e+00
-4.064524e-02 0.000000e+00 0.000000e+00
-4.813915e-02 0.000000e+00 0.000000e+00
-5.689114e-02 0.000000e+00 0.000000e+00
-6.764842e-02 0.000000e+00 0.000000e+00
-8.017754e-02 0.000000e+00 0.000000e+00
-9.424679e-02 0.000000e+00 0.000000e+00
-1.087266e-01 0.000000e+00 0.000000e+00
-1.221381e-01 0.000000e+00 0.000000e+00
-1.328205e-01 0.000000e+00 0.000000e+00
-1.395312e-01 0.000000e+00 0.000000e+00
-1.415732e-01 0.000000e+00 0.000000e+00
-1.388753e-01 0.000000e+00 0.000000e+00
-1.319665e-01 0.000000e+00 0.000000e+00
-1.216907e-01 0.000000e+00 0.000000e+00
-1.089761e-01 0.000000e+00 0.000000e+00
-9.468368e-02 0.000000e+00 0.000000e+00
-7.960811e-02 0.000000e+00 0.000000e+00
-6.440204e-02 0.000000e+00 0.000000e+00
-4.963771e-02 0.000000e+00 0.000000e+00
-3.560002e-02 0.000000e+00 0.000000e+00
-2.249194e-02 0.000000e+00 0.000000e+00
-1.014582e-02 0.000000e+00 0.000000e+00
1.525415e-03 0.000000e+00 0.000000e+00
1.303876e-02 0.000000e+00 0.000000e+00
2.451942e-02 0.000000e+00 0.000000e+00
3.631280e-02 0.000000e+00 0.000000e+00
4.810002e-02 0.000000e+00 0.000000e+00
5.971513e-02 0.000000e+00 0.000000e+00
7.000971e-02 0.000000e+00 0.000000e+00
7.797763e-02 0.000000e+00 0.000000e+00
8.168749e-02 0.000000e+00 0.000000e+00
8.048255e-02 0.000000e+00 0.000000e+00
7.425893e-02 0.000000e+00 0.000000e+00
6.461388e-02 0.000000e+00 0.000000e+00
4.980083e-02 0.000000e+00 0.000000e+00
3.729405e-02 0.000000e+00 0.000000e+00
0.000000e+00 0.000000e+00 0.000000e+00
0.000000e+00 4.896699e-14 0.000000e+00
-3.218201e-02 -5.303474e-14 0.000000e+00
-3.138955e-02 -3.381530e-14 0.000000e+00
-3.563485e-02 -3.076394e-14 0.000000e+00
-4.064524e-02 2.472699e-14 0.000000e+00
-4.813915e-02 -4.251528e-15 0.000000e+00
-5.689114e-02 1.806774e-14 0.000000e+00
-6.764842e-02 4.676373e-15 0.000000e+00
-8.017754e-02 -6.153404e-15 0.000000e+00
-9.424679e-02 5.609970e-15 0.000000e+00
-1.087266e-01 -5.796570e-15 0.000000e+00
-1.221381e-01 7.965256e-15 0.000000e+00
-1.328205e-01 -8.373904e-15 0.000000e+00
-1.395312e-01 -1.399413e-14 0.000000e+00
-1.415732e-01 2.760279e-14 0.000000e+00
-1.388753e-01 -1.810241e-14 0.000000e+00
-1.319665e-01 -1.308067e-14 0.000000e+00
-1.216907e-01 1.661848e-14 0.000000e+00
-1.089761e-01 -1.449254e-14 0.000000e+00
-9.468368e-02 1.765515e-14 0.000000e+00
-7.960811e-02 7.970553e-15 0.000000e+00
-6.440204e-02 1.798422e-14 0.000000e+00
-4.963771e-02 1.437139e-14 0.000000e+00
-3.560002e-02 -1.766617e-14 0.000000e+00
-2.249194e-02 1.793184e-14 0.000000e+00
-1.014582e-02 -3.421246e-16 0.000000e+00
1.525415e-03 -2.718178e-14 0.000000e+00
1.303876e-02 3.016928e-14 0.000000e+00
2.451942e-02 -3.504033e-14 0.000000e+00
3.631280e-02 2.309181e-14 0.000000e+00
4.810002e-02 -1.479530e-14 0.000000e+00
5.971513e-02 -1.474265e-14 0.000000e+00
7.000971e-02 -1.399479e-14 0.000000e+00
7.797763e-02 4.644908e-14 0.000000e+00
8.168749e-02 -5.285710e-14 0.000000e+00
8.048255e-02 1.068697e-13 0.000000e+00
7.425893e-02 -8.198864e-14 0.000000e+00
6.461388e-02 3.858179e-14 0.000000e+00
4.980083e-02 -7.516312e-14 0.000000e+00
3.729405e-02 4.993309e-14 0.000000e+00
0.000000e+00 -4.345086e-14 0.000000e+00
0.000000e+00 1.096721e-13 0.000000e+00
-3.218201e-02 -2.531710e-14 0.000000e+00
-3.138955e-02 -3.767985e-14 0.000000e+00
-3.563485e-02 -5.679940e-14 0.000000e+00
-4.064524e-02 7.173252e-14 0.000000e+00
-4.813915e-02 -2.132479e-14 0.000000e+00
-5.689114e-02 3.187225e-14 0.000000e+00
-6.764842e-02 -4.499012e-15 0.000000e+00
-8.017754e-02 2.961099e-14 0.000000e+00
-9.424679e-02 -1.608740e-14 0.000000e+00
-1.087266e-01 -6.480151e-15 0.000000e+00
-1.221381e-01 -3.001362e-15 0.000000e+00
-1.328205e-01 6.894428e-15 0.000000e+00
-1.395312e-01 -8.366012e-15 0.000000e+00
-1.415732e-01 4.597649e-14 0.000000e+00
-1.388753e-01 -2.390074e-14 0.000000e+00
-1.319665e-01 -2.902617e-14 0.000000e+00
-1.216907e-01 1.806727e-14 0.000000e+00
-1.089761e-01 -2.992872e-14 0.000000e+00
-9.468368e-02 1.229598e-14 0.000000e+00
-7.960811e-02 -7.123462e-15 0.000000e+00
-6.440204e-02 1.855133e-14 0.000000e+00
-4.963771e-02 1.545264e-14 0.000000e+00
-3.560002e-02 -2.429430e-14 0.000000e+00
-2.249194e-02 1.714908e-14 0.000000e+00
-1.014582e-02 -4.060236e-15 0.000000e+00
1.525415e-03 -2.860265e-14 0.000000e+00
1.303876e-02 2.535807e-14 0.000000e+00
2.451942e-02 -3.566373e-14 0.000000e+00
3.631280e-02 2.598758e-14 0.000000e+00
4.810002e-02 -7.641382e-15 0.000000e+00
5.971513e-02 -1.511101e-14 0.000000e+00
7.000971e-02 1.375530e-14 0.000000e+00
7.797763e-02 9.275227e-14 0.000000e+00
8.168749e-02 -4.016312e-14 0.000000e+00
8.048255e-02 1.010433e-13 0.000000e+00
7.425893e-02 -4.340849e-14 0.000000e+00
6.461388e-02 -2.695645e-14 0.000000e+00
4.980083e-02 2.940694e-15 0.000000e+00
3.729405e-02 2.076629e-14 0.000000e+00
0.000000e+00 -1.463180e-13 0.000000e+00
0.000000e+00 5.343764e-14 0.000000e+00
-3.218201e-02 -4.422516e-15 0.000000e+00
-3.138955e-02 9.519273e-15 0.000000e+00
-3.563485e-02 -6.077792e-14 0.000000e+00
-4.064524e-02 4.678446e-14 0.000000e+00
-4.813915e-02 -9.180766e-15 0.000000e+00
-5.689114e-02 1.453120e-14 0.000000e+00
-6.764842e-02 -2.695693e-16 0.000000e+00
-8.017754e-02 2.975324e-14 0.000000e+00
-9.424679e-02 -7.199251e-15 0.000000e+00
-1.087266e-01 -8.873066e-15 0.000000e+00
-1.221381e-01 -2.288336e-14 0.000000e+00
-1.328205e-01 1.053830e-14 0.000000e+00
-1.395312e-01 -1.670875e-14 0.000000e+00
-1.415732e-01 6.872282e-14 0.000000e+00
-1.388753e-01 -2.169617e-14 0.000000e+00
-1.319665e-01 -1.548512e-14 0.000000e+00
-1.216907e-01 2.875678e-14 0.000000e+00
-1.089761e-01 -2.538947e-14 0.000000e+00
-9.468368e-02 1.905573e-14 0.000000e+00
-7.960811e-02 -1.875824e-15 0.000000e+00
-6.440204e-02 3.071161e-14 0.000000e+00
-4.963771e-02 1.711363e-14 0.000000e+00
-3.560002e-02 -3.384029e-14 0.000000e+00
-2.249194e-02 1.163005e-14 0.000000e+00
-1.014582e-02 -1.079018e-14 0.000000e+00
1.525415e-03 -3.367573e-14 0.000000e+00
1.303876e-02 1.652104e-14 0.000000e+00
2.451942e-02 -4.759891e-14 0.000000e+00
3.631280e-02 1.755754e-14 0.000000e+00
4.810002e-02 -2.179508e-14 0.000000e+00
5.971513e-02 -7.300120e-15 0.000000e+00
7.000971e-02 -1.671483e-14 0.000000e+00
7.797763e-02 1.426879e-13 0.000000e+00
8.168749e-02 -1.152546e-13 0.000000e+00
8.048255e-02 1.575776e-13 0.000000e+00
7.425893e-02 -1.199211e-13 0.000000e+00
6.461388e-02 7.510035e-14 0.000000e+00
4.980083e-02 -1.176089e-14 0.000000e+00
3.729405e-02 6.247141e-14 0.000000e+00
0.000000e+00 -2.793014e-13 0.000000e+00
0.000000e+00 -6.755069e-14 0.000000e+00
-3.218201e-02 -5.906062e-14 0.000000e+00
-3.138955e-02 -1.229585e-14 0.000000e+00
-3.563485e-02 -8.529860e-14 0.000000e+00
-4.064524e-02 4.264205e-14 0.000000e+00
-4.813915e-02 4.596648e-15 0.000000e+00
-5.689114e-02 -7.671311e-15 0.000000e+00
-6.764842e-02 -1.579450e-14 0.000000e+00
-8.017754e-02 1.748021e-14 0.000000e+00
-9.424679e-02 -4.801216e-15 0.000000e+00
-1.087266e-01 -6.240747e-15 0.000000e+00
-1.221381e-01 -7.344319e-15 0.000000e+00
-1.328205e-01 1.567003e-14 0.000000e+00
-1.395312e-01 -1.008960e-14 0.000000e+00
-1.415732e-01 4.795613e-14 0.000000e+00
-1.388753e-01 -2.295178e-14 0.000000e+00
-1.319665e-01 -2.108282e-14 0.000000e+00
-1.216907e-01 2.032667e-14 0.000000e+00
-1.089761e-01 -2.742534e-14 0.000000e+00
-9.468368e-02 1.168807e-14 0.000000e+00
-7.960811e-02 8.724742e-15 0.000000e+00
-6.440204e-02 3.255233e-14 0.000000e+00
-4.963771e-02 2.037700e-14 0.000000e+00
-3.560002e-02 -2.652300e-14 0.000000e+00
-2.249194e-02 1.387624e-14 0.000000e+00
-1.014582e-02 -1.471625e-14 0.000000e+00
1.525415e-03 -1.324394e-14 0.000000e+00
1.303876e-02 2.191363e-14 0.000000e+00
2.451942e-02 -1.227326e-14 0.000000e+00
3.631280e-02 1.477437e-14 0.000000e+00
4.810002e-02 5.000936e-16 0.000000e+00
5.971513e-02 -1.575514e-14 0.000000e+00
7.000971e-02 -1.912860e-14 0.000000e+00
7.797763e-02 7.725137e-14 0.000000e+00
8.168749e-02 -1.256792e-13 0.000000e+00
8.048255e-02 9.520381e-14 0.000000e+00
7.425893e-02 -1.112691e-13 0.000000e+00
6.461388e-02 3.156106e-14 0.000000e+00
4.980083e-02 4.297665e-14 0.000000e+00
3.729405e-02 5.456555e-15 0.000000e+00
0.000000e+00 -1.253613e-13 0.000000e+00
0.000000e+00 5.149119e-14 0.000000e+00
-3.218201e-02 -1.455041e-13 0.000000e+00
-3.138955e-02 3.277963e-14 0.000000e+00
-3.563485e-02 -7.180285e-14 0.000000e+00
-4.064524e-02 3.688696e-14 0.000000e+00
-4.813915e-02 -1.713492e-14 0.000000e+00
-5.689114e-02 8.822087e-15 0.000000e+00
-6.764842e-02 -2.524166e-14 0.000000e+00
-8.017754e-02 2.104457e-14 0.000000e+00
-9.424679e-02 -9.879769e-15 0.000000e+00
-1.087266e-01 -7.912921e-15 0.000000e+00
-1.221381e-01 -1.101918e-14 0.000000e+00
-1.328205e-01 1.081106e-14 0.000000e+00
-1.395312e-01 -1.256155e-14 0.000000e+00
-1.415732e-01 2.722337e-14 0.000000e+00
-1.388753e-01 -2.271393e-14 0.000000e+00
-1.319665e-01 -1.652264e-14 0.000000e+00
-1.216907e-01 9.291415e-15 0.000000e+00
-1.089761e-01 -2.142412e-14 0.000000e+00
-9.468368e-02 -9.878410e-16 0.000000e+00
-7.960811e-02 -4.564229e-15 0.000000e+00
-6.440204e-02 -2.569299e-15 0.000000e+00
-4.963771e-02 1.973216e-15 0.000000e+00
-3.560002e-02 -2.477166e-14 0.000000e+00
-2.249194e-02 -7.015829e-16 0.000000e+00
-1.014582e-02 -1.645497e-14 0.000000e+00
1.525415e-03 -2.863540e-14 0.000000e+00
1.303876e-02 1.704883e-14 0.000000e+00
2.451942e-02 -3.246787e-14 0.000000e+00
3.631280e-02 8.289843e-15 0.000000e+00
4.810002e-02 -1.715173e-15 0.000000e+00
5.971513e-02 -5.072085e-15 0.000000e+00
7.000971e-02 4.241050e-15 0.000000e+00
7.797763e-02 7.388683e-14 0.000000e+00
8.168749e-02 -7.909211e-14 0.000000e+00
8.048255e-02 1.188321e-13 0.000000e+00
7.425893e-02 -1.476411e-13 0.000000e+00
6.461388e-02 1.059476e-13 0.000000e+00
4.980083e-02 -7.408374e-14 0.000000e+00
3.729405e-02 8.280225e-14 0.000000e+00
0.000000e+00 -9.222980e-14 0.000000e+00
0.000000e+00 0.000000e+00 0.000000e+00
-3.218201e-02 0.000000e+00 0.000000e+00
-3.138955e-02 0.000000e+00 0.000000e+00
-3.563485e-02 0.000000e+00 0.000000e+00
-4.064524e-02 0.000000e+00 0.000000e+00
-4.813915e-02 0.000000e+00 0.000000e+00
-5.689114e-02 0.000000e+00 0.000000e+00
-6.764842e-02 0.000000e+00 0.000000e+00
-8.017754e-02 0.000000e+00 0.000000e+00
-9.424679e-02 0.000000e+00 0.000000e+00
-1.087266e-01 0.000000e+00 0.000000e+00
-1.221381e-01 0.000000e+00 0.000000e+00
-1.328205e-01 0.000000e+00 0.000000e+00
-1.395312e-01 0.000000e+00 0.000000e+00
-1.415732e-01 0.000000e+00 0.000000e+00
-1.388753e-01 0.000000e+00 0.000000e+00
-1.319665e-01 0.000000e+00 0.000000e+00
-1.216907e-01 0.000000e+00 0.000000e+00
-1.089761e-01 0.000000e+00 0.000000e+00
-9.468368e-02 0.000000e+00 0.000000e+00
-7.960811e-02 0.000000e+00 0.000000e+00
-6.440204e-02 0.000000e+00 0.000000e+00
-4.963771e-02 0.000000e+00 0.000000e+00
-3.560002e-02 0.000000e+00 0.000000e+00
-2.249194e-02 0.000000e+00 0.000000e+00
-1.014582e-02 0.000000e+00 0.000000e+00
1.525415e-03 0.000000e+00 0.000000e+00
1.303876e-02 0.000000e+00 0.000000e+00
2.451942e-02 0.000000e+00 0.000000e+00
3.631280e-02 0.000000e+00 0.000000e+00
4.810002e-02 0.000000e+00 0.000000e+00
5.971513e-02 0.000000e+00 0.000000e+00
7.000971e-02 0.000000e+00 0.000000e+00
7.797763e-02 0.000000e+00 0.000000e+00
8.168749e-02 0.000000e+00 0.000000e+00
8.048255e-02 0.000000e+00 0.000000e+00
7.425893e-02 0.000000e+00 0.000000e+00
6.461388e-02 0.000000e+00 0.000000e+00
4.980083e-02 0.000000e+00 0.000000e+00
3.729405e-02 0.000000e+00 0.000000e+00
0.000000e+00 0.000000e+00 0.000000e+00
0.000000e+00 0.000000e+00 3.534415e-02
-2.891393e-02 0.000000e+00 1.532183e-02
-5.130360e-02 0.000000e+00 2.842246e-03
-7.115995e-02 0.000000e+00 8.031337e-03
-8.923242e-02 0.000000e+00 7.119371e-03
-1.051243e-01 0.000000e+00 8.267176e-03
-1.198552e-01 0.000000e+00 8.828992e-03
-1.338820e-01 0.000000e+00 1.017387e-02
-1.482540e-01 0.000000e+00 1.146227e-02
-1.629156e-01 0.000000e+00 1.224897e-02
-1.773113e-01 0.000000e+00 1.175601e-02
-1.899623e-01 0.000000e+00 9.631829e-03
-1.993291e-01 0.000000e+00 5.998737e-03
-2.041539e-01 0.000000e+00 1.411275e-03
-2.039331e-01 0.000000e+00 -3.506914e-03
-1.987598e-01 0.000000e+00 -8.105313e-03
-1.893588e-01 0.000000e+00 -1.192336e-02
-1.766268e-01 0.000000e+00 -1.481648e-02
-1.615104e-01 0.000000e+00 -1.680608e-02
-1.448468e-01 0.000000e+00 -1.797345e-02
-1.273978e-01 0.000000e+00 -1.842658e-02
-1.097951e-01 0.000000e+00 -1.826883e-02
-9.252672e-02 0.000000e+00 -1.770155e-02
-7.588555e-02 0.000000e+00 -1.688243e-02
-6.003956e-02 0.000000e+00 -1.604327e-02
-4.498164e-02 0.000000e+00 -1.529295e-02
-3.060320e-02 0.000000e+00 -1.482981e-02
-1.666752e-02 0.000000e+00 -1.466411e-02
-2.974278e-03 0.000000e+00 -1.474032e-02
1.059710e-02 0.000000e+00 -1.480548e-02
2.386661e-02 0.000000e+00 -1.465883e-02
3.650178e-02 0.000000e+00 -1.389166e-02
4.781073e-02 0.000000e+00 -1.217634e-02
5.700201e-02 0.000000e+00 -9.089030e-03
6.306004e-02 0.000000e+00 -4.768823e-03
6.509424e-02 0.000000e+00 3.373964e-04
6.215588e-02 0.000000e+00 4.425179e-03
5.378987e-02 0.000000e+00 1.024065e-02
4.107431e-02 0.000000e+00 9.821368e-03
2.402076e-02 0.000000e+00 2.011489e-02
0.000000e+00 0.000000e+00 3.554573e-02
0.000000e+00 -3.587680e-15 3.534415e-02
-2.891393e-02 -3.878292e-15 1.532183e-02
-5.130360e-02 9.849179e-15 2.842246e-03
-7.115995e-02 -9.128340e-15 8.031337e-03
-8.923242e-02 8.917293e-15 7.119371e-03
-1.051243e-01 1.728417e-14 8.267176e-03
-1.198552e-01 1.031569e-14 8.828992e-03
-1.338820e-01 -1.822798e-14 1.017387e-02
-1.482540e-01 -6.999680e-15 1.146227e-02
-1.629156e-01 3.460783e-14 1.224897e-02
-1.773113e-01 2.258049e-14 1.175601e-02
-1.899623e-01 -7.123112e-15 9.631829e-03
-1.993291e-01 -2.384519e-14 5.998737e-03
-2.041539e-01 -3.503270e-15 1.411275e-03
-2.039331e-01 -8.398602e-16 -3.506914e-03
-1.987598e-01 1.005791e-14 -8.105313e-03
-1.893588e-01 1.187539e-14 -1.192336e-02
-1.766268e-01 -1.349943e-15 -1.481648e-02
-1.615104e-01 5.092957e-15 -1.680608e-02
-1.448468e-01 -2.869490e-16 -1.797345e-02
-1.273978e-01 8.462722e-15 -1.842658e-02
-1.097951e-01 -3.043350e-15 -1.826883e-02
-9.252672e-02 -1.027237e-14 -1.770155e-02
-7.588555e-02 1.693495e-15 -1.688243e-02
-6.003956e-02 1.593943e-14 -1.604327e-02
-4.498164e-02 -2.833307e-14 -1.529295e-02
-3.060320e-02 2.130127e-14 -1.482981e-02
-1.666752e-02 4.651297e-15 -1.466411e-02
-2.974278e-03 -4.217591e-16 -1.474032e-02
1.059710e-02 -1.673439e-14 -1.480548e-02
2.386661e-02 -9.946172e-15 -1.465883e-02
3.650178e-02 -5.484708e-15 -1.389166e-02
4.781073e-02 -3.908038e-15 -1.217634e-02
5.700201e-02 1.408440e-14 -9.089030e-03
6.306004e-02 -7.581220e-15 -4.768823e-03
6.509424e-02 -2.782082e-14 3.373964e-04
6.215588e-02 -3.791568e-14 4.425179e-03
5.378987e-02 1.168838e-14 1.024065e-02
4.107431e-02 -1.050437e-13 9.821368e-03
2.402076e-02 7.937889e-14 2.011489e-02
0.000000e+00 -4.049059e-14 3.554573e-02
0.000000e+00 -3.731981e-14 3.534415e-02
-2.891393e-02 2.238090e-14 1.532183e-02
-5.130360e-02 2.062011e-14 2.842246e-03
-7.115995e-02 7.993464e-15 8.031337e-03
-8.923242e-02 -5.782971e-15 7.119371e-03
-1.051243e-01 1.069686e-14 8.267176e-03
-1.198552e-01 3.262245e-14 8.828992e-03
-1.338820e-01 -1.453393e-15 1.017387e-02
-1.482540e-01 1.543217e-14 1.146227e-02
-1.629156e-01 2.832801e-14 1.224897e-02
-1.773113e-01 2.398145e-14 1.175601e-02
-1.899623e-01 -2.734875e-14 9.631829e-03
-1.993291e-01 -2.552057e-14 5.998737e-03
-2.041539e-01 -1.362621e-14 1.411275e-03
-2.039331e-01 -5.663835e-15 -3.506914e-03
-1.987598e-01 2.681910e-15 -8.105313e-03
-1.893588e-01 1.132406e-14 -1.192336e-02
-1.766268e-01 -9.712355e-15 -1.481648e-02
-1.615104e-01 2.403845e-15 -1.680608e-02
-1.448468e-01 -6.395687e-15 -1.797345e-02
-1.273978e-01 1.246678e-14 -1.842658e-02
-1.097951e-01 -1.197685e-14 -1.826883e-02
-9.252672e-02 -1.955716e-14 -1.770155e-02
-7.588555e-02 4.519851e-15 -1.688243e-02
-6.003956e-02 1.584092e-14 -1.604327e-02
-4.498164e-02 -4.156440e-14 -1.529295e-02
-3.060320e-02 3.257174e-14 -1.482981e-02
-1.666752e-02 6.849097e-15 -1.466411e-02
-2.974278e-03 9.753732e-15 -1.474032e-02
1.059710e-02 -1.918694e-14 -1.480548e-02
2.386661e-02 1.323602e-14 -1.465883e-02
3.650178e-02 2.621358e-14 -1.389166e-02
4.781073e-02 2.743711e-14 -1.217634e-02
5.700201e-02 1.970179e-14 -9.089030e-03
6.306004e-02 -4.962999e-15 -4.768823e-03
6.509424e-02 -4.455873e-14 3.373964e-04
6.215588e-02 -2.988198e-15 4.425179e-03
5.378987e-02 -2.751084e-14 1.024065e-02
4.107431e-02 -2.461965e-14 9.821368e-03
2.402076e-02 4.567714e-14 2.011489e-02
0.000000e+00 -1.540893e-14 3.554573e-02
0.000000e+00 -2.028925e-14 3.534415e-02
-2.891393e-02 3.041323e-14 1.532183e-02
-5.130360e-02 9.148945e-15 2.842246e-03
-7.115995e-02 2.660240e-14 8.031337e-03
-8.923242e-02 -2.671690e-14 7.119371e-03
-1.051243e-01 1.690020e-14 8.267176e-03
-1.198552e-01 3.067800e-14 8.828992e-03
-1.338820e-01 -6.199540e-15 1.017387e-02
-1.482540e-01 6.621444e-15 1.146227e-02
-1.629156e-01 3.570631e-14 1.224897e-02
-1.773113e-01 1.804682e-14 1.175601e-02
-1.899623e-01 -2.819073e-14 9.631829e-03
-1.993291e-01 -2.258434e-14 5.998737e-03
-2.041539e-01 -1.703746e-14 1.411275e-03
-2.039331e-01 9.023395e-15 -3.506914e-03
-1.987598e-01 1.923459e-15 -8.105313e-03
-1.893588e-01 2.754159e-14 -1.192336e-02
-1.766268e-01 -1.118470e-14 -1.481648e-02
-1.615104e-01 1.282396e-14 -1.680608e-02
-1.448468e-01 -8.272189e-16 -1.797345e-02
-1.273978e-01 2.132331e-14 -1.842658e-02
-1.097951e-01 -1.487616e-14 -1.826883e-02
-9.252672e-02 -2.790416e-14 -1.770155e-02
-7.588555e-02 5.467256e-16 -1.688243e-02
-6.003956e-02 1.683201e-14 -1.604327e-02
-4.498164e-02 -4.390818e-14 -1.529295e-02
-3.060320e-02 3.508662e-14 -1.482981e-02
-1.666752e-02 -2.143565e-16 -1.466411e-02
-2.974278e-03 -4.342920e-15 -1.474032e-02
1.059710e-02 -4.095058e-14 -1.480548e-02
2.386661e-02 6.235775e-15 -1.465883e-02
3.650178e-02 2.488545e-14 -1.389166e-02
4.781073e-02 2.093809e-14 -1.217634e-02
5.700201e-02 8.286683e-15 -9.089030e-03
6.306004e-02 -4.217546e-14 -4.768823e-03
6.509424e-02 -5.777621e-16 3.373964e-04
6.215588e-02 -2.380524e-14 4.425179e-03
5.378987e-02 2.778241e-14 1.024065e-02
4.107431e-02 -1.333929e-13 9.821368e-03
2.402076e-02 1.376433e-13 2.011489e-02
0.000000e+00 -6.212415e-14 3.554573e-02
0.000000e+00 -7.356840e-14 3.534415e-02
-2.891393e-02 5.370562e-14 1.532183e-02
-5.130360e-02 2.463906e-15 2.842246e-03
-7.115995e-02 1.199638e-14 8.031337e-03
-8.923242e-02 -3.134242e-15 7.119371e-03
-1.051243e-01 -7.197773e-16 8.267176e-03
-1.198552e-01 1.553464e-14 8.828992e-03
-1.338820e-01 -1.263472e-14 1.017387e-02
-1.482540e-01 1.178400e-15 1.146227e-02
-1.629156e-01 2.901680e-14 1.224897e-02
-1.773113e-01 1.708816e-14 1.175601e-02
-1.899623e-01 -1.461862e-14 9.631829e-03
-1.993291e-01 -2.371169e-14 5.998737e-03
-2.041539e-01 -1.665394e-14 1.411275e-03
-2.039331e-01 -2.173975e-16 -3.506914e-03
-1.987598e-01 1.773273e-15 -8.105313e-03
-1.893588e-01 2.653609e-14 -1.192336e-02
-1.766268e-01 -9.813269e-15 -1.481648e-02
-1.615104e-01 1.143930e-14 -1.680608e-02
-1.448468e-01 3.648179e-15 -1.797345e-02
-1.273978e-01 2.314842e-14 -1.842658e-02
-1.097951e-01 -1.382807e-14 -1.826883e-02
-9.252672e-02 -2.717460e-14 -1.770155e-02
-7.588555e-02 -5.467991e-15 -1.688243e-02
-6.003956e-02 1.611038e-14 -1.604327e-02
-4.498164e-02 -2.777807e-14 -1.529295e-02
-3.060320e-02 4.244468e-14 -1.482981e-02
-1.666752e-02 1.185309e-14 -1.466411e-02
-2.974278e-03 5.048452e-15 -1.474032e-02
1.059710e-02 -3.645843e-14 -1.480548e-02
2.386661e-02 1.438428e-14 -1.465883e-02
3.650178e-02 1.205554e-14 -1.389166e-02
4.781073e-02 -1.416701e-15 -1.217634e-02
5.700201e-02 -3.512388e-14 -9.089030e-03
6.306004e-02 -4.686018e-14 -4.768823e-03
6.509424e-02 -1.072591e-14 3.373964e-04
6.215588e-02 1.188665e-14 4.425179e-03
5.378987e-02 -2.784103e-14 1.024065e-02
4.107431e-02 -6.101806e-14 9.821368e-03
2.402076e-02 4.724688e-14 2.011489e-02
0.000000e+00 6.276671e-16 3.554573e-02
0.000000e+00 -6.490665e-14 3.534415e-02
-2.891393e-02 2.244827e-14 1.532183e-02
-5.130360e-02 -1.309243e-14 2.842246e-03