# vtk DataFile Version 3.0
vtk output
ASCII
DATASET UNSTRUCTURED_GRID
POINTS 11767 float
0.000000e+00 0.000000e+00 0.000000e+00
1.460000e-02 0.000000e+00 0.000000e+00
2.920000e-02 0.000000e+00 0.000000e+00
4.380000e-02 0.000000e+00 0.000000e+00
5.840000e-02 0.000000e+00 0.000000e+00
7.300000e-02 0.000000e+00 0.000000e+00
8.760000e-02 0.000000e+00 0.000000e+00
1.022000e-01 0.000000e+00 0.000000e+00
1.168000e-01 0.000000e+00 0.000000e+00
1.314000e-01 0.000000e+00 0.000000e+00
1.460000e-01 0.000000e+00 0.000000e+00
1.606000e-01 0.000000e+00 0.000000e+00
1.752000e-01 0.000000e+00 0.000000e+00
1.898000e-01 0.000000e+00 0.000000e+00
2.044000e-01 0.000000e+00 0.000000e+00
2.190000e-01 0.000000e+00 0.000000e+00
2.336000e-01 0.000000e+00 0.000000e+00
2.482000e-01 0.000000e+00 0.000000e+00
2.628000e-01 0.000000e+00 0.000000e+00
2.774000e-01 0.000000e+00 0.000000e+00
2.920000e-01 0.000000e+00 0.000000e+00
3.066000e-01 0.000000e+00 0.000000e+00
3.212000e-01 0.000000e+00 0.000000e+00
3.358000e-01 0.000000e+00 0.000000e+00
3.504000e-01 0.000000e+00 0.000000e+00
3.650000e-01 0.000000e+00 0.000000e+00
3.796000e-01 0.000000e+00 0.000000e+00
3.942000e-01 0.000000e+00 0.000000e+00
4.088000e-01 0.000000e+00 0.000000e+00
4.234000e-01 0.000000e+00 0.000000e+00
4.380000e-01 0.000000e+00 0.000000e+00
4.526000e-01 0.000000e+00 0.000000e+00
4.672000e-01 0.000000e+00 0.000000e+00
4.818000e-01 0.000000e+00 0.000000e+00
4.964000e-01 0.000000e+00 0.000000e+00
5.110000e-01 0.000000e+00 0.000000e+00
5.256000e-01 0.000000e+00 0.000000e+00
5.402000e-01 0.000000e+00 0.000000e+00
5.548000e-01 0.000000e+00 0.000000e+00
5.694000e-01 0.000000e+00 0.000000e+00
5.840000e-01 0.000000e+00 0.000000e+00
0.000000e+00 1.460000e-02 0.000000e+00
1.460000e-02 1.460000e-02 0.000000e+00
2.920000e-02 1.460000e-02 0.000000e+00
4.380000e-02 1.460000e-02 0.000000e+00
5.840000e-02 1.460000e-02 0.000000e+00
7.300000e-02 1.460000e-02 0.000000e+00
8.760000e-02 1.460000e-02 0.000000e+00
1.022000e-01 1.460000e-02 0.000000e+00
1.168000e-01 1.460000e-02 0.000000e+00
1.314000e-01 1.460000e-02 0.000000e+00
1.460000e-01 1.460000e-02 0.000000e+00
1.606000e-01 1.460000e-02 0.000000e+00
1.752000e-01 1.460000e-02 0.000000e+00
1.898000e-01 1.460000e-02 0.000000e+00
2.044000e-01 1.460000e-02 0.000000e+00
2.190000e-01 1.460000e-02 0.000000e+00
2.336000e-01 1.460000e-02 0.000000e+00
2.482000e-01 1.460000e-02 0.000000e+00
2.628000e-01 1.460000e-02 0.000000e+00
2.774000e-01 1.460000e-02 0.000000e+00
2.920000e-01 1.460000e-02 0.000000e+00
3.066000e-01 1.460000e-02 0.000000e+00
3.212000e-01 1.460000e-02 0.000000e+00
3.358000e-01 1.460000e-02 0.000000e+00
3.504000e-01 1.460000e-02 0.000000e+00
3.650000e-01 1.460000e-02 0.000000e+00
3.796000e-01 1.460000e-02 0.000000e+00
3.942000e-01 1.460000e-02 0.000000e+00
4.088000e-01 1.460000e-02 0.000000e+00
4.234000e-01 1.460000e-02 0.000000e+00
4.380000e-01 1.460000e-02 0.000000e+00
4.526000e-01 1.460000e-02 0.000000e+00
4.672000e-01 1.460000e-02 0.000000e+00
4.818000e-01 1.460000e-02 0.000000e+00
4.964000e-01 1.460000e-02 0.000000e+00
5.110000e-01 1.460000e-02 0.000000e+00
5.256000e-01 1.460000e-02 0.000000e+00
5.402000e-01 1.460000e-02 0.000000e+00
5.548000e-01 1.460000e-02 0.000000e+00
5.694000e-01 1.460000e-02 0.000000e+00
5.840000e-01 1.460000e-02 0.000000e+00
0.000000e+00 2.920000e-02 0.000000e+00
1.460000e-02 2.920000e-02 0.000000e+00
2.920000e-02 2.920000e-02 0.000000e+00
4.380000e-02 2.920000e-02 0.000000e+00
5.840000e-02 2.920000e-02 0.000000e+00
7.300000e-02 2.920000e-02 0.000000e+00
8.760000e-02 2.920000e-02 0.000000e+00
1.022000e-01 2.920000e-02 0.000000e+00
1.168000e-01 2.920000e-02 0.000000e+00
1.314000e-01 2.920000e-02 0.000000e+00
1.460000e-01 2.920000e-02 0.000000e+00
1.606000e-01 2.920000e-02 0.000000e+00
1.752000e-01 2.920000e-02 0.000000e+00
1.898000e-01 2.920000e-02 0.000000e+00
2.044000e-01 2.920000e-02 0.000000e+00
2.190000e-01 2.920000e-02 0.000000e+00
2.336000e-01 2.920000e-02 0.000000e+00
2.482000e-01 2.920000e-02 0.000000e+00
2.628000e-01 2.920000e-02 0.000000e+00
2.774000e-01 2.920000e-02 0.000000e+00
2.920000e-01 2.920000e-02 0.000000e+00
3.066000e-01 2.920000e-02 0.000000e+00
3.212000e-01 2.920000e-02 0.000000e+00
3.358000e-01 2.920000e-02 0.000000e+00
3.504000e-01 2.920000e-02 0.000000e+00
3.650000e-01 2.920000e-02 0.000000e+00
3.796000e-01 2.920000e-02 0.000000e+00
3.942000e-01 2.920000e-02 0.000000e+00
4.088000e-01 2.920000e-02 0.000000e+00
4.234000e-01 2.920000e-02 0.000000e+00
4.380000e-01 2.920000e-02 0.000000e+00
4.526000e-01 2.920000e-02 0.000000e+00
4.672000e-01 2.920000e-02 0.000000e+00
4.818000e-01 2.920000e-02 0.000000e+00
4.964000e-01 2.920000e-02 0.000000e+00
5.110000e-01 2.920000e-02 0.000000e+00
5.256000e-01 2.920000e-02 0.000000e+00
5.402000e-01 2.920000e-02 0.000000e+00
5.548000e-01 2.920000e-02 0.000000e+00
5.694000e-01 2.920000e-02 0.000000e+00
5.840000e-01 2.920000e-02 0.000000e+00
0.000000e+00 4.380000e-02 0.000000e+00
1.460000e-02 4.380000e-02 0.000000e+00
2.920000e-02 4.380000e-02 0.000000e+00
4.380000e-02 4.380000e-02 0.000000e+00
5.840000e-02 4.380000e-02 0.000000e+00
7.300000e-02 4.380000e-02 0.000000e+00
8.760000e-02 4.380000e-02 0.000000e+00
1.022000e-01 4.380000e-02 0.000000e+00
1.168000e-01 4.380000e-02 0.000000e+00
1.314000e-01 4.380000e-02 0.000000e+00
1.460000e-01 4.380000e-02 0.000000e+00
1.606000e-01 4.380000e-02 0.000000e+00
1.752000e-01 4.380000e-02 0.000000e+00
1.898000e-01 4.380000e-02 0.000000e+00
2.044000e-01 4.380000e-02 0.000000e+00
2.190000e-01 4.380000e-02 0.000000e+00
2.336000e-01 4.380000e-02 0.000000e+00
2.482000e-01 4.380000e-02 0.000000e+00
2.628000e-01 4.380000e-02 0.000000e+00
2.774000e-01 4.380000e-02 0.000000e+00
2.920000e-01 4.380000e-02 0.000000e+00
3.066000e-01 4.380000e-02 0.000000e+00
3.212000e-01 4.380000e-02 0.000000e+00
3.358000e-01 4.380000e-02 0.000000e+00
3.504000e-01 4.380000e-02 0.000000e+00
3.650000e-01 4.380000e-02 0.000000e+00
3.796000e-01 4.380000e-02 0.000000e+00
3.942000e-01 4.380000e-02 0.000000e+00
4.088000e-01 4.380000e-02 0.000000e+00
4.234000e-01 4.380000e-02 0.000000e+00
4.380000e-01 4.380000e-02 0.000000e+00
4.526000e-01 4.380000e-02 0.000000e+00
4.672000e-01 4.380000e-02 0.000000e+00
4.818000e-01 4.380000e-02 0.000000e+00
4.964000e-01 4.380000e-02 0.000000e+00
5.110000e-01 4.380000e-02 0.000000e+00
5.256000e-01 4.380000e-02 0.000000e+00
5.402000e-01 4.380000e-02 0.000000e+00
5.548000e-01 4.380000e-02 0.000000e+00
5.694000e-01 4.380000e-02 0.000000e+00
5.840000e-01 4.380000e-02 0.000000e+00
0.000000e+00 5.840000e-02 0.000000e+00
1.460000e-02 5.840000e-02 0.000000e+00
2.920000e-02 5.840000e-02 0.000000e+00
4.380000e-02 5.840000e-02 0.000000e+00
5.840000e-02 5.840000e-02 0.000000e+00
7.300000e-02 5.840000e-02 0.000000e+00
8.760000e-02 5.840000e-02 0.000000e+00
1.022000e-01 5.840000e-02 0.000000e+00
1.168000e-01 5.840000e-02 0.000000e+00
1.314000e-01 5.840000e-02 0.000000e+00
1.460000e-01 5.840000e-02 0.000000e+00
1.606000e-01 5.840000e-02 0.000000e+00
1.752000e-01 5.840000e-02 0.000000e+00
1.898000e-01 5.840000e-02 0.000000e+00
2.044000e-01 5.840000e-02 0.000000e+00
2.190000e-01 5.840000e-02 0.000000e+00
2.336000e-01 5.840000e-02 0.000000e+00
2.482000e-01 5.840000e-02 0.000000e+00
2.628000e-01 5.840000e-02 0.000000e+00
2.774000e-01 5.840000e-02 0.000000e+00
2.920000e-01 5.840000e-02 0.000000e+00
3.066000e-01 5.840000e-02 0.000000e+00
3.212000e-01 5.840000e-02 0.000000e+00
3.358000e-01 5.840000e-02 0.000000e+00
3.504000e-01 5.840000e-02 0.000000e+00
3.650000e-01 5.840000e-02 0.000000e+00
3.796000e-01 5.840000e-02 0.000000e+00
3.942000e-01 5.840000e-02 0.000000e+00
4.088000e-01 5.840000e-02 0.000000e+00
4.234000e-01 5.840000e-02 0.000000e+00
4.380000e-01 5.840000e-02 0.000000e+00
4.526000e-01 5.840000e-02 0.000000e+00
4.672000e-01 5.840000e-02 0.000000e+00
4.818000e-01 5.840000e-02 0.000000e+00
4.964000e-01 5.840000e-02 0.000000e+00
5.110000e-01 5.840000e-02 0.000000e+00
5.256000e-01 5.840000e-02 0.000000e+00
5.402000e-01 5.840000e-02 0.000000e+00
5.548000e-01 5.840000e-02 0.000000e+00
5.694000e-01 5.840000e-02 0.000000e+00
5.840000e-01 5.840000e-02 0.000000e+00
0.000000e+00 7.300000e-02 0.000000e+00
1.460000e-02 7.300000e-02 0.000000e+00
2.920000e-02 7.300000e-02 0.000000e+00
4.380000e-02 7.300000e-02 0.000000e+00
5.840000e-02 7.300000e-02 0.000000e+00
7.300000e-02 7.300000e-02 0.000000e+00
8.760000e-02 7.300000e-02 0.000000e+00
1.022000e-01 7.300000e-02 0.000000e+00
1.168000e-01 7.300000e-02 0.000000e+00
1.314000e-01 7.300000e-02 0.000000e+00
1.460000e-01 7.300000e-02 0.000000e+00
1.606000e-01 7.300000e-02 0.000000e+00
1.752000e-01 7.300000e-02 0.000000e+00
1.898000e-01 7.300000e-02 0.000000e+00
2.044000e-01 7.300000e-02 0.000000e+00
2.190000e-01 7.300000e-02 0.000000e+00
2.336000e-01 7.300000e-02 0.000000e+00
2.482000e-01 7.300000e-02 0.000000e+00
2.628000e-01 7.300000e-02 0.000000e+00
2.774000e-01 7.300000e-02 0.000000e+00
2.920000e-01 7.300000e-02 0.000000e+00
3.066000e-01 7.300000e-02 0.000000e+00
3.212000e-01 7.300000e-02 0.000000e+00
3.358000e-01 7.300000e-02 0.000000e+00
3.504000e-01 7.300000e-02 0.000000e+00
3.650000e-01 7.300000e-02 0.000000e+00
3.796000e-01 7.300000e-02 0.000000e+00
3.942000e-01 7.300000e-02 0.000000e+00
4.088000e-01 7.300000e-02 0.000000e+00
4.234000e-01 7.300000e-02 0.000000e+00
4.380000e-01 7.300000e-02 0.000000e+00
4.526000e-01 7.300000e-02 0.000000e+00
4.672000e-01 7.300000e-02 0.000000e+00
4.818000e-01 7.300000e-02 0.000000e+00
4.964000e-01 7.300000e-02 0.000000e+00
5.110000e-01 7.300000e-02 0.000000e+00
5.256000e-01 7.300000e-02 0.000000e+00
5.402000e-01 7.300000e-02 0.000000e+00
5.548000e-01 7.300000e-02 0.000000e+00
5.694000e-01 7.300000e-02 0.000000e+00
5.840000e-01 7.300000e-02 0.000000e+00
0.000000e+00 8.760000e-02 0.000000e+00
1.460000e-02 8.760000e-02 0.000000e+00
2.920000e-02 8.760000e-02 0.000000e+00
4.380000e-02 8.760000e-02 0.000000e+00
5.840000e-02 8.760000e-02 0.000000e+00
7.300000e-02 8.760000e-02 0.000000e+00
8.760000e-02 8.760000e-02 0.000000e+00
1.022000e-01 8.760000e-02 0.000000e+00
[...]
POINT_DATA 11767
VECTORS Velocity float
0.000000e+00 0.000000e+00 0.000000e+00
1.465462e-02 0.000000e+00 0.000000e+00
2.479820e-02 0.000000e+00 0.000000e+00
3.316374e-02 0.000000e+00 0.000000e+00
4.040631e-02 0.000000e+00 0.000000e+00
4.731803e-02 0.000000e+00 0.000000e+00
5.412491e-02 0.000000e+00 0.000000e+00
6.106035e-02 0.000000e+00 0.000000e+00
6.811318e-02 0.000000e+00 0.000000e+00
7.523862e-02 0.000000e+00 0.000000e+00
8.230677e-02 0.000000e+00 0.000000e+00
8.916308e-02 0.000000e+00 0.000000e+00
9.564069e-02 0.000000e+00 0.000000e+00
1.015799e-01 0.000000e+00 0.000000e+00
1.068376e-01 0.000000e+00 0.000000e+00
1.112758e-01 0.000000e+00 0.000000e+00
1.147018e-01 0.000000e+00 0.000000e+00
1.167961e-01 0.000000e+00 0.000000e+00
1.177360e-01 0.000000e+00 0.000000e+00
1.180465e-01 0.000000e+00 0.000000e+00
1.181418e-01 0.000000e+00 0.000000e+00
1.183412e-01 0.000000e+00 0.000000e+00
1.187193e-01 0.000000e+00 0.000000e+00
1.193594e-01 0.000000e+00 0.000000e+00
1.201308e-01 0.000000e+00 0.000000e+00
1.209060e-01 0.000000e+00 0.000000e+00
1.214016e-01 0.000000e+00 0.000000e+00
1.214556e-01 0.000000e+00 0.000000e+00
1.208453e-01 0.000000e+00 0.000000e+00
1.195467e-01 0.000000e+00 0.000000e+00
1.174904e-01 0.000000e+00 0.000000e+00
1.147762e-01 0.000000e+00 0.000000e+00
1.115056e-01 0.000000e+00 0.000000e+00
1.077791e-01 0.000000e+00 0.000000e+00
1.035076e-01 0.000000e+00 0.000000e+00
9.851278e-02 0.000000e+00 0.000000e+00
9.145366e-02 0.000000e+00 0.000000e+00
8.320083e-02 0.000000e+00 0.000000e+00
6.769398e-02 0.000000e+00 0.000000e+00
4.979993e-02 0.000000e+00 0.000000e+00
0.000000e+00 0.000000e+00 0.000000e+00
0.000000e+00 -3.358222e-13 0.000000e+00
1.465462e-02 -3.661683e-15 0.000000e+00
2.479820e-02 6.094750e-14 0.000000e+00
3.316374e-02 1.777816e-13 0.000000e+00
4.040631e-02 6.388313e-14 0.000000e+00
4.731803e-02 -5.902151e-14 0.000000e+00
5.412491e-02 -1.253816e-13 0.000000e+00
6.106035e-02 -1.896138e-13 0.000000e+00
6.811318e-02 -2.228881e-13 0.000000e+00
7.523862e-02 -1.998681e-13 0.000000e+00
8.230677e-02 -1.293572e-13 0.000000e+00
8.916308e-02 -2.302437e-13 0.000000e+00
9.564069e-02 1.313542e-13 0.000000e+00
1.015799e-01 -7.183118e-14 0.000000e+00
1.068376e-01 -1.774660e-13 0.000000e+00
1.112758e-01 -2.583846e-13 0.000000e+00
1.147018e-01 -1.804372e-13 0.000000e+00
1.167961e-01 -2.341346e-13 0.000000e+00
1.177360e-01 -8.706751e-14 0.000000e+00
1.180465e-01 -1.122679e-13 0.000000e+00
1.181418e-01 -3.708757e-14 0.000000e+00
1.183412e-01 -2.060564e-14 0.000000e+00
1.187193e-01 -1.069537e-14 0.000000e+00
1.193594e-01 1.685977e-14 0.000000e+00
1.201308e-01 -2.281690e-14 0.000000e+00
1.209060e-01 -2.003487e-14 0.000000e+00
1.214016e-01 2.696798e-14 0.000000e+00
1.214556e-01 1.331584e-13 0.000000e+00
1.208453e-01 2.173033e-13 0.000000e+00
1.195467e-01 3.159186e-13 0.000000e+00
1.174904e-01 1.336179e-13 0.000000e+00
1.147762e-01 2.252634e-13 0.000000e+00
1.115056e-01 -2.283943e-14 0.000000e+00
1.077791e-01 -2.211236e-14 0.000000e+00
1.035076e-01 -7.317321e-14 0.000000e+00
9.851278e-02 -1.629150e-14 0.000000e+00
9.145366e-02 5.402925e-15 0.000000e+00
8.320083e-02 9.519391e-14 0.000000e+00
6.769398e-02 -5.924663e-14 0.000000e+00
4.979993e-02 3.329937e-13 0.000000e+00
0.000000e+00 2.933313e-13 0.000000e+00
0.000000e+00 -2.929582e-13 0.000000e+00
1.465462e-02 1.206059e-13 0.000000e+00
2.479820e-02 1.040817e-13 0.000000e+00
3.316374e-02 -5.540667e-14 0.000000e+00
4.040631e-02 4.283989e-15 0.000000e+00
4.731803e-02 -1.205572e-13 0.000000e+00
5.412491e-02 -3.434117e-13 0.000000e+00
6.106035e-02 -5.641579e-13 0.000000e+00
6.811318e-02 -3.652107e-13 0.000000e+00
7.523862e-02 -5.365678e-13 0.000000e+00
8.230677e-02 -4.155865e-13 0.000000e+00
8.916308e-02 -3.477147e-13 0.000000e+00
9.564069e-02 -2.713198e-13 0.000000e+00
1.015799e-01 -1.309384e-13 0.000000e+00
1.068376e-01 -3.917773e-13 0.000000e+00
1.112758e-01 -2.692957e-13 0.000000e+00
1.147018e-01 -4.718613e-13 0.000000e+00
1.167961e-01 -2.658945e-13 0.000000e+00
1.177360e-01 -2.553504e-13 0.000000e+00
1.180465e-01 -3.502953e-14 0.000000e+00
1.181418e-01 -1.843352e-14 0.000000e+00
1.183412e-01 7.956945e-14 0.000000e+00
1.187193e-01 1.274656e-13 0.000000e+00
1.193594e-01 1.783711e-13 0.000000e+00
1.201308e-01 1.036800e-13 0.000000e+00
1.209060e-01 4.794925e-14 0.000000e+00
1.214016e-01 -4.683347e-14 0.000000e+00
1.214556e-01 2.449016e-13 0.000000e+00
1.208453e-01 2.736532e-13 0.000000e+00
1.195467e-01 3.519257e-13 0.000000e+00
1.174904e-01 3.159761e-13 0.000000e+00
1.147762e-01 3.017270e-13 0.000000e+00
1.115056e-01 -1.609920e-13 0.000000e+00
1.077791e-01 1.337818e-13 0.000000e+00
1.035076e-01 -2.035789e-13 0.000000e+00
9.851278e-02 4.635105e-14 0.000000e+00
9.145366e-02 -1.051424e-14 0.000000e+00
8.320083e-02 2.048009e-13 0.000000e+00
6.769398e-02 -3.057254e-14 0.000000e+00
4.979993e-02 2.732283e-13 0.000000e+00
0.000000e+00 5.553757e-13 0.000000e+00
0.000000e+00 -5.238093e-13 0.000000e+00
1.465462e-02 -1.422629e-13 0.000000e+00
2.479820e-02 2.369093e-14 0.000000e+00
3.316374e-02 -2.929577e-14 0.000000e+00
4.040631e-02 -2.226718e-13 0.000000e+00
4.731803e-02 -4.702947e-13 0.000000e+00
5.412491e-02 -3.941605e-13 0.000000e+00
6.106035e-02 -7.735615e-13 0.000000e+00
6.811318e-02 -6.326442e-13 0.000000e+00
7.523862e-02 -7.819004e-13 0.000000e+00
8.230677e-02 -6.543302e-13 0.000000e+00
8.916308e-02 -8.419321e-13 0.000000e+00
9.564069e-02 -4.181822e-13 0.000000e+00
1.015799e-01 -4.220601e-13 0.000000e+00
1.068376e-01 -6.902367e-13 0.000000e+00
1.112758e-01 -4.826650e-13 0.000000e+00
1.147018e-01 -4.173154e-13 0.000000e+00
1.167961e-01 -2.231650e-13 0.000000e+00
1.177360e-01 -2.244256e-13 0.000000e+00
1.180465e-01 -4.542304e-14 0.000000e+00
1.181418e-01 -8.185444e-14 0.000000e+00
1.183412e-01 1.965164e-13 0.000000e+00
1.187193e-01 1.761106e-13 0.000000e+00
1.193594e-01 2.627864e-13 0.000000e+00
1.201308e-01 1.696679e-13 0.000000e+00
1.209060e-01 1.676201e-13 0.000000e+00
1.214016e-01 9.602445e-14 0.000000e+00
1.214556e-01 1.467764e-13 0.000000e+00
1.208453e-01 1.706949e-13 0.000000e+00
1.195467e-01 3.342081e-13 0.000000e+00
1.174904e-01 2.370423e-13 0.000000e+00
1.147762e-01 3.991165e-13 0.000000e+00
1.115056e-01 -5.567741e-14 0.000000e+00
1.077791e-01 6.476082e-14 0.000000e+00
1.035076e-01 -5.334484e-15 0.000000e+00
9.851278e-02 1.232939e-13 0.000000e+00
9.145366e-02 -8.083619e-14 0.000000e+00
8.320083e-02 2.510465e-13 0.000000e+00
6.769398e-02 -6.880555e-15 0.000000e+00
4.979993e-02 2.895397e-13 0.000000e+00
0.000000e+00 4.590307e-13 0.000000e+00
0.000000e+00 7.528408e-14 0.000000e+00
1.465462e-02 -4.061721e-13 0.000000e+00
2.479820e-02 -2.875921e-13 0.000000e+00
3.316374e-02 -3.387557e-13 0.000000e+00
4.040631e-02 -4.480716e-13 0.000000e+00
4.731803e-02 -6.000946e-13 0.000000e+00
5.412491e-02 -4.263772e-13 0.000000e+00
6.106035e-02 -7.020018e-13 0.000000e+00
6.811318e-02 -7.848346e-13 0.000000e+00
7.523862e-02 -6.955875e-13 0.000000e+00
8.230677e-02 -7.221832e-13 0.000000e+00
8.916308e-02 -9.082652e-13 0.000000e+00
9.564069e-02 -6.717510e-13 0.000000e+00
1.015799e-01 -5.466527e-13 0.000000e+00
1.068376e-01 -6.559462e-13 0.000000e+00
1.112758e-01 -4.389799e-13 0.000000e+00
1.147018e-01 -3.386201e-13 0.000000e+00
1.167961e-01 3.044746e-14 0.000000e+00
1.177360e-01 -1.162263e-13 0.000000e+00
1.180465e-01 4.907846e-14 0.000000e+00
1.181418e-01 -4.584981e-14 0.000000e+00
1.183412e-01 7.857321e-14 0.000000e+00
1.187193e-01 1.498866e-13 0.000000e+00
1.193594e-01 2.179091e-13 0.000000e+00
1.201308e-01 2.925958e-14 0.000000e+00
1.209060e-01 6.319466e-14 0.000000e+00
1.214016e-01 1.226776e-13 0.000000e+00
1.214556e-01 1.283759e-13 0.000000e+00
1.208453e-01 7.061232e-14 0.000000e+00
1.195467e-01 2.595238e-13 0.000000e+00
1.174904e-01 2.058197e-13 0.000000e+00
1.147762e-01 1.463662e-13 0.000000e+00
1.115056e-01 3.693650e-15 0.000000e+00
1.077791e-01 5.540118e-14 0.000000e+00
1.035076e-01 -1.733615e-13 0.000000e+00
9.851278e-02 1.197094e-13 0.000000e+00
9.145366e-02 -5.001922e-14 0.000000e+00
8.320083e-02 2.796659e-13 0.000000e+00
6.769398e-02 5.079390e-14 0.000000e+00
4.979993e-02 5.002958e-14 0.000000e+00
0.000000e+00 4.761784e-13 0.000000e+00
0.000000e+00 -2.652896e-13 0.000000e+00
1.465462e-02 -3.417735e-13 0.000000e+00
2.479820e-02 -3.295709e-13 0.000000e+00
3.316374e-02 -1.735527e-13 0.000000e+00
4.040631e-02 -3.051326e-13 0.000000e+00
4.731803e-02 -4.046615e-13 0.000000e+00
5.412491e-02 -3.672928e-13 0.000000e+00
6.106035e-02 -4.321053e-13 0.000000e+00
6.811318e-02 -3.874792e-13 0.000000e+00
7.523862e-02 -5.413942e-13 0.000000e+00
8.230677e-02 -4.765331e-13 0.000000e+00
8.916308e-02 -6.179897e-13 0.000000e+00
9.564069e-02 -3.143571e-13 0.000000e+00
1.015799e-01 -4.131529e-13 0.000000e+00
1.068376e-01 -5.072668e-13 0.000000e+00
1.112758e-01 -1.974822e-13 0.000000e+00
1.147018e-01 -1.929544e-13 0.000000e+00
1.167961e-01 -3.405098e-15 0.000000e+00
1.177360e-01 -9.276049e-14 0.000000e+00
1.180465e-01 3.131752e-15 0.000000e+00
1.181418e-01 -7.445625e-14 0.000000e+00
1.183412e-01 3.410781e-14 0.000000e+00
1.187193e-01 -1.124951e-13 0.000000e+00
1.193594e-01 -1.017822e-14 0.000000e+00
1.201308e-01 4.544008e-14 0.000000e+00
1.209060e-01 -1.169821e-13 0.000000e+00
1.214016e-01 -3.392516e-14 0.000000e+00
1.214556e-01 6.936585e-14 0.000000e+00
1.208453e-01 8.992973e-14 0.000000e+00
1.195467e-01 8.110344e-14 0.000000e+00
1.174904e-01 5.754347e-14 0.000000e+00
1.147762e-01 7.407414e-14 0.000000e+00
1.115056e-01 -7.514821e-14 0.000000e+00
1.077791e-01 1.518962e-14 0.000000e+00
1.035076e-01 -1.382729e-13 0.000000e+00
9.851278e-02 4.062164e-14 0.000000e+00
9.145366e-02 -6.033794e-15 0.000000e+00
8.320083e-02 2.260282e-13 0.000000e+00
6.769398e-02 -1.595628e-14 0.000000e+00
4.979993e-02 2.238087e-13 0.000000e+00
0.000000e+00 2.650037e-13 0.000000e+00
0.000000e+00 0.000000e+00 0.000000e+00
1.465462e-02 0.000000e+00 0.000000e+00
2.479820e-02 0.000000e+00 0.000000e+00
3.316374e-02 0.000000e+00 0.000000e+00
4.040631e-02 0.000000e+00 0.000000e+00
4.731803e-02 0.000000e+00 0.000000e+00
5.412491e-02 0.000000e+00 0.000000e+00
6.106035e-02 0.000000e+00 0.000000e+00
6.811318e-02 0.000000e+00 0.000000e+00
7.523862e-02 0.000000e+00 0.000000e+00
8.230677e-02 0.000000e+00 0.000000e+00
8.916308e-02 0.000000e+00 0.000000e+00
9.564069e-02 0.000000e+00 0.000000e+00
1.015799e-01 0.000000e+00 0.000000e+00
1.068376e-01 0.000000e+00 0.000000e+00
1.112758e-01 0.000000e+00 0.000000e+00
1.147018e-01 0.000000e+00 0.000000e+00
1.167961e-01 0.000000e+00 0.000000e+00
1.177360e-01 0.000000e+00 0.000000e+00
1.180465e-01 0.000000e+00 0.000000e+00
1.181418e-01 0.000000e+00 0.000000e+00
1.183412e-01 0.000000e+00 0.000000e+00
1.187193e-01 0.000000e+00 0.000000e+00
1.193594e-01 0.000000e+00 0.000000e+00
1.201308e-01 0.000000e+00 0.000000e+00
1.209060e-01 0.000000e+00 0.000000e+00
1.214016e-01 0.000000e+00 0.000000e+00
1.214556e-01 0.000000e+00 0.000000e+00
1.208453e-01 0.000000e+00 0.000000e+00
1.195467e-01 0.000000e+00 0.000000e+00
1.174904e-01 0.000000e+00 0.000000e+00
1.147762e-01 0.000000e+00 0.000000e+00
1.115056e-01 0.000000e+00 0.000000e+00
1.077791e-01 0.000000e+00 0.000000e+00
1.035076e-01 0.000000e+00 0.000000e+00
9.851278e-02 0.000000e+00 0.000000e+00
9.145366e-02 0.000000e+00 0.000000e+00
8.320083e-02 0.000000e+00 0.000000e+00
6.769398e-02 0.000000e+00 0.000000e+00
4.979993e-02 0.000000e+00 0.000000e+00
0.000000e+00 0.000000e+00 0.000000e+00
0.000000e+00 0.000000e+00 -1.302207e-02
7.142998e-04 0.000000e+00 -1.134726e-02
3.584739e-03 0.000000e+00 -9.504422e-03
7.298195e-03 0.000000e+00 -8.968348e-03
1.170121e-02 0.000000e+00 -8.673208e-03
1.672700e-02 0.000000e+00 -8.783030e-03
2.236511e-02 0.000000e+00 -8.988968e-03
2.856443e-02 0.000000e+00 -9.264728e-03
3.520865e-02 0.000000e+00 -9.442797e-03
4.206472e-02 0.000000e+00 -9.482423e-03
4.887015e-02 0.000000e+00 -9.331159e-03
5.533460e-02 0.000000e+00 -8.964030e-03
6.109847e-02 0.000000e+00 -8.363725e-03
6.578441e-02 0.000000e+00 -7.527713e-03
6.899204e-02 0.000000e+00 -6.488712e-03
7.051142e-02 0.000000e+00 -5.324474e-03
7.046688e-02 0.000000e+00 -4.109159e-03
6.958176e-02 0.000000e+00 -3.028519e-03
6.831567e-02 0.000000e+00 -2.343962e-03
6.699695e-02 0.000000e+00 -2.137991e-03
6.608440e-02 0.000000e+00 -2.297894e-03
6.570052e-02 0.000000e+00 -2.580227e-03
6.574100e-02 0.000000e+00 -2.823724e-03
6.582472e-02 0.000000e+00 -2.938842e-03
6.571182e-02 0.000000e+00 -2.894176e-03
6.520993e-02 0.000000e+00 -2.666322e-03
6.427031e-02 0.000000e+00 -2.266549e-03
6.284678e-02 0.000000e+00 -1.744529e-03
6.104803e-02 0.000000e+00 -1.176479e-03
5.900392e-02 0.000000e+00 -6.525742e-04
5.695956e-02 0.000000e+00 -1.894579e-04
5.502516e-02 0.000000e+00 1.525222e-04
5.328849e-02 0.000000e+00 4.337170e-04
5.150258e-02 0.000000e+00 8.403628e-04
4.950642e-02 0.000000e+00 1.183204e-03
4.693995e-02 0.000000e+00 2.712501e-03
4.338217e-02 0.000000e+00 3.365660e-03
3.835756e-02 0.000000e+00 8.189209e-03
3.016934e-02 0.000000e+00 9.715429e-03
1.885698e-02 0.000000e+00 2.439242e-02
0.000000e+00 0.000000e+00 4.330182e-02
0.000000e+00 -2.291314e-13 -1.302207e-02
7.142998e-04 -2.365733e-13 -1.134726e-02
3.584739e-03 -4.377326e-13 -9.504422e-03
7.298195e-03 -3.689556e-13 -8.968348e-03
1.170121e-02 -3.920076e-13 -8.673208e-03
1.672700e-02 -5.942047e-13 -8.783030e-03
2.236511e-02 -7.455647e-13 -8.988968e-03
2.856443e-02 -5.360030e-13 -9.264728e-03
3.520865e-02 -6.466597e-13 -9.442797e-03
4.206472e-02 -6.525298e-13 -9.482423e-03
4.887015e-02 -7.131289e-13 -9.331159e-03
5.533460e-02 -6.440157e-13 -8.964030e-03
6.109847e-02 -5.311862e-13 -8.363725e-03
6.578441e-02 -2.251021e-13 -7.527713e-03
6.899204e-02 -9.175036e-14 -6.488712e-03
7.051142e-02 3.281531e-13 -5.324474e-03
7.046688e-02 4.070303e-13 -4.109159e-03
6.958176e-02 5.991768e-13 -3.028519e-03
6.831567e-02 4.564963e-13 -2.343962e-03
6.699695e-02 2.962067e-13 -2.137991e-03
6.608440e-02 1.639866e-13 -2.297894e-03
6.570052e-02 1.398681e-13 -2.580227e-03
6.574100e-02 9.413068e-14 -2.823724e-03
6.582472e-02 1.002207e-13 -2.938842e-03
6.571182e-02 1.211651e-13 -2.894176e-03
6.520993e-02 1.875662e-14 -2.666322e-03
6.427031e-02 -7.353197e-14 -2.266549e-03
6.284678e-02 -2.624570e-13 -1.744529e-03
6.104803e-02 -5.395431e-13 -1.176479e-03
5.900392e-02 -4.306684e-13 -6.525742e-04
5.695956e-02 -1.690707e-13 -1.894579e-04
5.502516e-02 7.435347e-14 1.525222e-04
5.328849e-02 1.968188e-13 4.337170e-04
5.150258e-02 4.371167e-13 8.403628e-04
4.950642e-02 2.976845e-13 1.183204e-03
4.693995e-02 4.421527e-13 2.712501e-03
4.338217e-02 1.485424e-13 3.365660e-03
3.835756e-02 1.331293e-13 8.189209e-03
3.016934e-02 1.127055e-13 9.715429e-03
1.885698e-02 -2.545499e-14 2.439242e-02
0.000000e+00 3.785982e-13 4.330182e-02
0.000000e+00 -2.388344e-13 -1.302207e-02
7.142998e-04 -3.135011e-13 -1.134726e-02
3.584739e-03 -5.432460e-13 -9.504422e-03
7.298195e-03 -4.830741e-13 -8.968348e-03
1.170121e-02 -5.381933e-13 -8.673208e-03
1.672700e-02 -7.248265e-13 -8.783030e-03
2.236511e-02 -8.684185e-13 -8.988968e-03
2.856443e-02 -7.163113e-13 -9.264728e-03
3.520865e-02 -8.806618e-13 -9.442797e-03
4.206472e-02 -9.231805e-13 -9.482423e-03
4.887015e-02 -8.384724e-13 -9.331159e-03
5.533460e-02 -6.952382e-13 -8.964030e-03
6.109847e-02 -5.418152e-13 -8.363725e-03
6.578441e-02 -3.912224e-13 -7.527713e-03
6.899204e-02 -8.227893e-14 -6.488712e-03
7.051142e-02 3.102095e-13 -5.324474e-03
7.046688e-02 6.680307e-13 -4.109159e-03
6.958176e-02 6.897639e-13 -3.028519e-03
6.831567e-02 6.877126e-13 -2.343962e-03
6.699695e-02 3.508491e-13 -2.137991e-03
6.608440e-02 2.881124e-13 -2.297894e-03
6.570052e-02 1.857744e-13 -2.580227e-03
6.574100e-02 1.162289e-13 -2.823724e-03
6.582472e-02 1.345013e-13 -2.938842e-03
6.571182e-02 7.653447e-14 -2.894176e-03
6.520993e-02 1.399068e-13 -2.666322e-03
6.427031e-02 9.058519e-14 -2.266549e-03
6.284678e-02 -1.419069e-13 -1.744529e-03
6.104803e-02 -5.290760e-13 -1.176479e-03
5.900392e-02 -4.758741e-13 -6.525742e-04
5.695956e-02 -5.092137e-13 -1.894579e-04
5.502516e-02 -6.541557e-14 1.525222e-04
5.328849e-02 9.898663e-14 4.337170e-04
5.150258e-02 3.151902e-13 8.403628e-04
4.950642e-02 2.355945e-13 1.183204e-03
4.693995e-02 5.791103e-13 2.712501e-03
4.338217e-02 1.979585e-13 3.365660e-03
3.835756e-02 1.056411e-13 8.189209e-03
3.016934e-02 2.908830e-13 9.715429e-03
1.885698e-02 -4.043862e-14 2.439242e-02
0.000000e+00 3.951546e-13 4.330182e-02
0.000000e+00 -2.450416e-13 -1.302207e-02
7.142998e-04 -2.481617e-13 -1.134726e-02
3.584739e-03 -3.874462e-13 -9.504422e-03
7.298195e-03 -2.878909e-13 -8.968348e-03
1.170121e-02 -1.537361e-13 -8.673208e-03
1.672700e-02 -3.661969e-13 -8.783030e-03
2.236511e-02 -4.679107e-13 -8.988968e-03
2.856443e-02 -4.210759e-13 -9.264728e-03
3.520865e-02 -5.194070e-13 -9.442797e-03
4.206472e-02 -4.259543e-13 -9.482423e-03
4.887015e-02 -5.458019e-13 -9.331159e-03
5.533460e-02 -1.325421e-13 -8.964030e-03
6.109847e-02 -3.489797e-13 -8.363725e-03
6.578441e-02 -1.412756e-14 -7.527713e-03
6.899204e-02 -6.069276e-14 -6.488712e-03
7.051142e-02 2.469466e-13 -5.324474e-03
7.046688e-02 3.276450e-13 -4.109159e-03
6.958176e-02 4.754463e-13 -3.028519e-03
6.831567e-02 5.678650e-13 -2.343962e-03
6.699695e-02 2.707824e-13 -2.137991e-03
6.608440e-02 2.910450e-13 -2.297894e-03
6.570052e-02 1.526566e-13 -2.580227e-03
6.574100e-02 1.659061e-14 -2.823724e-03
6.582472e-02 7.700283e-14 -2.938842e-03
6.571182e-02 5.890081e-14 -2.894176e-03
6.520993e-02 2.476054e-13 -2.666322e-03
6.427031e-02 2.935772e-13 -2.266549e-03
6.284678e-02 1.734905e-13 -1.744529e-03
6.104803e-02 -2.624176e-13 -1.176479e-03
5.900392e-02 -4.116874e-13 -6.525742e-04
5.695956e-02 -4.155556e-13 -1.894579e-04
5.502516e-02 -4.081630e-13 1.525222e-04
5.328849e-02 -7.615630e-14 4.337170e-04
5.150258e-02 2.125660e-13 8.403628e-04
4.950642e-02 6.622473e-14 1.183204e-03
4.693995e-02 3.876082e-13 2.712501e-03
4.338217e-02 2.335782e-13 3.365660e-03
3.835756e-02 6.773457e-14 8.189209e-03
3.016934e-02 7.759409e-14 9.715429e-03
1.885698e-02 1.959114e-14 2.439242e-02
0.000000e+00 3.088928e-13 4.330182e-02
0.000000e+00 -3.459614e-13 -1.302207e-02
7.142998e-04 -3.721385e-15 -1.134726e-02
3.584739e-03 1.002762e-14 -9.504422e-03
7.298195e-03 -9.648061e-14 -8.968348e-03
1.170121e-02 7.330404e-14 -8.673208e-03
1.672700e-02 5.567272e-14 -8.783030e-03
2.236511e-02 3.980992e-15 -8.988968e-03
2.856443e-02 5.881550e-14 -9.264728e-03
3.520865e-02 2.204064e-13 -9.442797e-03
4.206472e-02 1.529722e-14 -9.482423e-03
4.887015e-02 1.416885e-13 -9.331159e-03
5.533460e-02 1.262511e-13 -8.964030e-03
6.109847e-02 2.580066e-13 -8.363725e-03
6.578441e-02 8.449278e-14 -7.527713e-03
6.899204e-02 4.411012e-14 -6.488712e-03
7.051142e-02 1.052739e-13 -5.324474e-03
7.046688e-02 -3.081382e-14 -4.109159e-03
6.958176e-02 8.128939e-14 -3.028519e-03
6.831567e-02 9.898222e-14 -2.343962e-03
6.699695e-02 6.107439e-14 -2.137991e-03
6.608440e-02 1.239561e-13 -2.297894e-03
6.570052e-02 4.601886e-14 -2.580227e-03
6.574100e-02 -4.558824e-14 -2.823724e-03
6.582472e-02 1.234104e-13 -2.938842e-03
6.571182e-02 4.592245e-14 -2.894176e-03
6.520993e-02 1.680199e-13 -2.666322e-03
6.427031e-02 3.124274e-13 -2.266549e-03
6.284678e-02 7.355208e-14 -1.744529e-03
6.104803e-02 -1.332322e-13 -1.176479e-03
5.900392e-02 -3.884679e-13 -6.525742e-04
5.695956e-02 -3.793974e-13 -1.894579e-04
5.502516e-02 -1.784743e-14 1.525222e-04
5.328849e-02 -1.997789e-13 4.337170e-04
5.150258e-02 8.130977e-14 8.403628e-04
4.950642e-02 1.925465e-13 1.183204e-03
4.693995e-02 2.833990e-13 2.712501e-03
4.338217e-02 3.477516e-13 3.365660e-03
3.835756e-02 1.767220e-13 8.189209e-03
3.016934e-02 1.093721e-13 9.715429e-03
1.885698e-02 6.149792e-14 2.439242e-02
0.000000e+00 3.725717e-13 4.330182e-02
0.000000e+00 -6.552260e-14 -1.302207e-02
7.142998e-04 -1.032688e-13 -1.134726e-02
3.584739e-03 -5.027445e-15 -9.504422e-03
7.298195e-03 -2.060612e-14 -8.968348e-03
1.170121e-02 1.293297e-13 -8.673208e-03
1.672700e-02 2.283409e-13 -8.783030e-03
2.236511e-02 1.515478e-13 -8.988968e-03
2.856443e-02 2.731564e-13 -9.264728e-03
3.520865e-02 1.922302e-13 -9.442797e-03
4.206472e-02 2.583829e-13 -9.482423e-03