# vtk DataFile Version 3.0
vtk output
ASCII
DATASET UNSTRUCTURED_GRID
POINTS 11767 float
0.000000e+00 0.000000e+00 0.000000e+00
1.460000e-02 0.000000e+00 0.000000e+00
2.920000e-02 0.000000e+00 0.000000e+00
4.380000e-02 0.000000e+00 0.000000e+00
5.840000e-02 0.000000e+00 0.000000e+00
7.300000e-02 0.000000e+00 0.000000e+00
8.760000e-02 0.000000e+00 0.000000e+00
1.022000e-01 0.000000e+00 0.000000e+00
1.168000e-01 0.000000e+00 0.000000e+00
1.314000e-01 0.000000e+00 0.000000e+00
1.460000e-01 0.000000e+00 0.000000e+00
1.606000e-01 0.000000e+00 0.000000e+00
1.752000e-01 0.000000e+00 0.000000e+00
1.898000e-01 0.000000e+00 0.000000e+00
2.044000e-01 0.000000e+00 0.000000e+00
2.190000e-01 0.000000e+00 0.000000e+00
2.336000e-01 0.000000e+00 0.000000e+00
2.482000e-01 0.000000e+00 0.000000e+00
2.628000e-01 0.000000e+00 0.000000e+00
2.774000e-01 0.000000e+00 0.000000e+00
2.920000e-01 0.000000e+00 0.000000e+00
3.066000e-01 0.000000e+00 0.000000e+00
3.212000e-01 0.000000e+00 0.000000e+00
3.358000e-01 0.000000e+00 0.000000e+00
3.504000e-01 0.000000e+00 0.000000e+00
3.650000e-01 0.000000e+00 0.000000e+00
3.796000e-01 0.000000e+00 0.000000e+00
3.942000e-01 0.000000e+00 0.000000e+00
4.088000e-01 0.000000e+00 0.000000e+00
4.234000e-01 0.000000e+00 0.000000e+00
4.380000e-01 0.000000e+00 0.000000e+00
4.526000e-01 0.000000e+00 0.000000e+00
4.672000e-01 0.000000e+00 0.000000e+00
4.818000e-01 0.000000e+00 0.000000e+00
4.964000e-01 0.000000e+00 0.000000e+00
5.110000e-01 0.000000e+00 0.000000e+00
5.256000e-01 0.000000e+00 0.000000e+00
5.402000e-01 0.000000e+00 0.000000e+00
5.548000e-01 0.000000e+00 0.000000e+00
5.694000e-01 0.000000e+00 0.000000e+00
5.840000e-01 0.000000e+00 0.000000e+00
0.000000e+00 1.460000e-02 0.000000e+00
1.460000e-02 1.460000e-02 0.000000e+00
2.920000e-02 1.460000e-02 0.000000e+00
4.380000e-02 1.460000e-02 0.000000e+00
5.840000e-02 1.460000e-02 0.000000e+00
7.300000e-02 1.460000e-02 0.000000e+00
8.760000e-02 1.460000e-02 0.000000e+00
1.022000e-01 1.460000e-02 0.000000e+00
1.168000e-01 1.460000e-02 0.000000e+00
1.314000e-01 1.460000e-02 0.000000e+00
1.460000e-01 1.460000e-02 0.000000e+00
1.606000e-01 1.460000e-02 0.000000e+00
1.752000e-01 1.460000e-02 0.000000e+00
1.898000e-01 1.460000e-02 0.000000e+00
2.044000e-01 1.460000e-02 0.000000e+00
2.190000e-01 1.460000e-02 0.000000e+00
2.336000e-01 1.460000e-02 0.000000e+00
2.482000e-01 1.460000e-02 0.000000e+00
2.628000e-01 1.460000e-02 0.000000e+00
2.774000e-01 1.460000e-02 0.000000e+00
2.920000e-01 1.460000e-02 0.000000e+00
3.066000e-01 1.460000e-02 0.000000e+00
3.212000e-01 1.460000e-02 0.000000e+00
3.358000e-01 1.460000e-02 0.000000e+00
3.504000e-01 1.460000e-02 0.000000e+00
3.650000e-01 1.460000e-02 0.000000e+00
3.796000e-01 1.460000e-02 0.000000e+00
3.942000e-01 1.460000e-02 0.000000e+00
4.088000e-01 1.460000e-02 0.000000e+00
4.234000e-01 1.460000e-02 0.000000e+00
4.380000e-01 1.460000e-02 0.000000e+00
4.526000e-01 1.460000e-02 0.000000e+00
4.672000e-01 1.460000e-02 0.000000e+00
4.818000e-01 1.460000e-02 0.000000e+00
4.964000e-01 1.460000e-02 0.000000e+00
5.110000e-01 1.460000e-02 0.000000e+00
5.256000e-01 1.460000e-02 0.000000e+00
5.402000e-01 1.460000e-02 0.000000e+00
5.548000e-01 1.460000e-02 0.000000e+00
5.694000e-01 1.460000e-02 0.000000e+00
5.840000e-01 1.460000e-02 0.000000e+00
0.000000e+00 2.920000e-02 0.000000e+00
1.460000e-02 2.920000e-02 0.000000e+00
2.920000e-02 2.920000e-02 0.000000e+00
4.380000e-02 2.920000e-02 0.000000e+00
5.840000e-02 2.920000e-02 0.000000e+00
7.300000e-02 2.920000e-02 0.000000e+00
8.760000e-02 2.920000e-02 0.000000e+00
1.022000e-01 2.920000e-02 0.000000e+00
1.168000e-01 2.920000e-02 0.000000e+00
1.314000e-01 2.920000e-02 0.000000e+00
1.460000e-01 2.920000e-02 0.000000e+00
1.606000e-01 2.920000e-02 0.000000e+00
1.752000e-01 2.920000e-02 0.000000e+00
1.898000e-01 2.920000e-02 0.000000e+00
2.044000e-01 2.920000e-02 0.000000e+00
2.190000e-01 2.920000e-02 0.000000e+00
2.336000e-01 2.920000e-02 0.000000e+00
2.482000e-01 2.920000e-02 0.000000e+00
2.628000e-01 2.920000e-02 0.000000e+00
2.774000e-01 2.920000e-02 0.000000e+00
2.920000e-01 2.920000e-02 0.000000e+00
3.066000e-01 2.920000e-02 0.000000e+00
3.212000e-01 2.920000e-02 0.000000e+00
3.358000e-01 2.920000e-02 0.000000e+00
3.504000e-01 2.920000e-02 0.000000e+00
3.650000e-01 2.920000e-02 0.000000e+00
3.796000e-01 2.920000e-02 0.000000e+00
3.942000e-01 2.920000e-02 0.000000e+00
4.088000e-01 2.920000e-02 0.000000e+00
4.234000e-01 2.920000e-02 0.000000e+00
4.380000e-01 2.920000e-02 0.000000e+00
4.526000e-01 2.920000e-02 0.000000e+00
4.672000e-01 2.920000e-02 0.000000e+00
4.818000e-01 2.920000e-02 0.000000e+00
4.964000e-01 2.920000e-02 0.000000e+00
5.110000e-01 2.920000e-02 0.000000e+00
5.256000e-01 2.920000e-02 0.000000e+00
5.402000e-01 2.920000e-02 0.000000e+00
5.548000e-01 2.920000e-02 0.000000e+00
5.694000e-01 2.920000e-02 0.000000e+00
5.840000e-01 2.920000e-02 0.000000e+00
0.000000e+00 4.380000e-02 0.000000e+00
1.460000e-02 4.380000e-02 0.000000e+00
2.920000e-02 4.380000e-02 0.000000e+00
4.380000e-02 4.380000e-02 0.000000e+00
5.840000e-02 4.380000e-02 0.000000e+00
7.300000e-02 4.380000e-02 0.000000e+00
8.760000e-02 4.380000e-02 0.000000e+00
1.022000e-01 4.380000e-02 0.000000e+00
1.168000e-01 4.380000e-02 0.000000e+00
1.314000e-01 4.380000e-02 0.000000e+00
1.460000e-01 4.380000e-02 0.000000e+00
1.606000e-01 4.380000e-02 0.000000e+00
1.752000e-01 4.380000e-02 0.000000e+00
1.898000e-01 4.380000e-02 0.000000e+00
2.044000e-01 4.380000e-02 0.000000e+00
2.190000e-01 4.380000e-02 0.000000e+00
2.336000e-01 4.380000e-02 0.000000e+00
2.482000e-01 4.380000e-02 0.000000e+00
2.628000e-01 4.380000e-02 0.000000e+00
2.774000e-01 4.380000e-02 0.000000e+00
2.920000e-01 4.380000e-02 0.000000e+00
3.066000e-01 4.380000e-02 0.000000e+00
3.212000e-01 4.380000e-02 0.000000e+00
3.358000e-01 4.380000e-02 0.000000e+00
3.504000e-01 4.380000e-02 0.000000e+00
3.650000e-01 4.380000e-02 0.000000e+00
3.796000e-01 4.380000e-02 0.000000e+00
3.942000e-01 4.380000e-02 0.000000e+00
4.088000e-01 4.380000e-02 0.000000e+00
4.234000e-01 4.380000e-02 0.000000e+00
4.380000e-01 4.380000e-02 0.000000e+00
4.526000e-01 4.380000e-02 0.000000e+00
4.672000e-01 4.380000e-02 0.000000e+00
4.818000e-01 4.380000e-02 0.000000e+00
4.964000e-01 4.380000e-02 0.000000e+00
5.110000e-01 4.380000e-02 0.000000e+00
5.256000e-01 4.380000e-02 0.000000e+00
5.402000e-01 4.380000e-02 0.000000e+00
5.548000e-01 4.380000e-02 0.000000e+00
5.694000e-01 4.380000e-02 0.000000e+00
5.840000e-01 4.380000e-02 0.000000e+00
0.000000e+00 5.840000e-02 0.000000e+00
1.460000e-02 5.840000e-02 0.000000e+00
2.920000e-02 5.840000e-02 0.000000e+00
4.380000e-02 5.840000e-02 0.000000e+00
5.840000e-02 5.840000e-02 0.000000e+00
7.300000e-02 5.840000e-02 0.000000e+00
8.760000e-02 5.840000e-02 0.000000e+00
1.022000e-01 5.840000e-02 0.000000e+00
1.168000e-01 5.840000e-02 0.000000e+00
1.314000e-01 5.840000e-02 0.000000e+00
1.460000e-01 5.840000e-02 0.000000e+00
1.606000e-01 5.840000e-02 0.000000e+00
1.752000e-01 5.840000e-02 0.000000e+00
1.898000e-01 5.840000e-02 0.000000e+00
2.044000e-01 5.840000e-02 0.000000e+00
2.190000e-01 5.840000e-02 0.000000e+00
2.336000e-01 5.840000e-02 0.000000e+00
2.482000e-01 5.840000e-02 0.000000e+00
2.628000e-01 5.840000e-02 0.000000e+00
2.774000e-01 5.840000e-02 0.000000e+00
2.920000e-01 5.840000e-02 0.000000e+00
3.066000e-01 5.840000e-02 0.000000e+00
3.212000e-01 5.840000e-02 0.000000e+00
3.358000e-01 5.840000e-02 0.000000e+00
3.504000e-01 5.840000e-02 0.000000e+00
3.650000e-01 5.840000e-02 0.000000e+00
3.796000e-01 5.840000e-02 0.000000e+00
3.942000e-01 5.840000e-02 0.000000e+00
4.088000e-01 5.840000e-02 0.000000e+00
4.234000e-01 5.840000e-02 0.000000e+00
4.380000e-01 5.840000e-02 0.000000e+00
4.526000e-01 5.840000e-02 0.000000e+00
4.672000e-01 5.840000e-02 0.000000e+00
4.818000e-01 5.840000e-02 0.000000e+00
4.964000e-01 5.840000e-02 0.000000e+00
5.110000e-01 5.840000e-02 0.000000e+00
5.256000e-01 5.840000e-02 0.000000e+00
5.402000e-01 5.840000e-02 0.000000e+00
5.548000e-01 5.840000e-02 0.000000e+00
5.694000e-01 5.840000e-02 0.000000e+00
5.840000e-01 5.840000e-02 0.000000e+00
0.000000e+00 7.300000e-02 0.000000e+00
1.460000e-02 7.300000e-02 0.000000e+00
2.920000e-02 7.300000e-02 0.000000e+00
4.380000e-02 7.300000e-02 0.000000e+00
5.840000e-02 7.300000e-02 0.000000e+00
7.300000e-02 7.300000e-02 0.000000e+00
8.760000e-02 7.300000e-02 0.000000e+00
1.022000e-01 7.300000e-02 0.000000e+00
1.168000e-01 7.300000e-02 0.000000e+00
1.314000e-01 7.300000e-02 0.000000e+00
1.460000e-01 7.300000e-02 0.000000e+00
1.606000e-01 7.300000e-02 0.000000e+00
1.752000e-01 7.300000e-02 0.000000e+00
1.898000e-01 7.300000e-02 0.000000e+00
2.044000e-01 7.300000e-02 0.000000e+00
2.190000e-01 7.300000e-02 0.000000e+00
2.336000e-01 7.300000e-02 0.000000e+00
2.482000e-01 7.300000e-02 0.000000e+00
2.628000e-01 7.300000e-02 0.000000e+00
2.774000e-01 7.300000e-02 0.000000e+00
2.920000e-01 7.300000e-02 0.000000e+00
3.066000e-01 7.300000e-02 0.000000e+00
3.212000e-01 7.300000e-02 0.000000e+00
3.358000e-01 7.300000e-02 0.000000e+00
3.504000e-01 7.300000e-02 0.000000e+00
3.650000e-01 7.300000e-02 0.000000e+00
3.796000e-01 7.300000e-02 0.000000e+00
3.942000e-01 7.300000e-02 0.000000e+00
4.088000e-01 7.300000e-02 0.000000e+00
4.234000e-01 7.300000e-02 0.000000e+00
4.380000e-01 7.300000e-02 0.000000e+00
4.526000e-01 7.300000e-02 0.000000e+00
4.672000e-01 7.300000e-02 0.000000e+00
4.818000e-01 7.300000e-02 0.000000e+00
4.964000e-01 7.300000e-02 0.000000e+00
5.110000e-01 7.300000e-02 0.000000e+00
5.256000e-01 7.300000e-02 0.000000e+00
5.402000e-01 7.300000e-02 0.000000e+00
5.548000e-01 7.300000e-02 0.000000e+00
5.694000e-01 7.300000e-02 0.000000e+00
5.840000e-01 7.300000e-02 0.000000e+00
0.000000e+00 8.760000e-02 0.000000e+00
1.460000e-02 8.760000e-02 0.000000e+00
2.920000e-02 8.760000e-02 0.000000e+00
4.380000e-02 8.760000e-02 0.000000e+00
5.840000e-02 8.760000e-02 0.000000e+00
7.300000e-02 8.760000e-02 0.000000e+00
8.760000e-02 8.760000e-02 0.000000e+00
1.022000e-01 8.760000e-02 0.000000e+00
[...]
POINT_DATA 11767
VECTORS Velocity float
0.000000e+00 0.000000e+00 0.000000e+00
-9.730950e-03 0.000000e+00 0.000000e+00
1.852456e-02 0.000000e+00 0.000000e+00
4.290402e-02 0.000000e+00 0.000000e+00
6.322679e-02 0.000000e+00 0.000000e+00
7.922032e-02 0.000000e+00 0.000000e+00
9.284512e-02 0.000000e+00 0.000000e+00
1.035367e-01 0.000000e+00 0.000000e+00
1.113258e-01 0.000000e+00 0.000000e+00
1.160079e-01 0.000000e+00 0.000000e+00
1.178152e-01 0.000000e+00 0.000000e+00
1.168093e-01 0.000000e+00 0.000000e+00
1.127833e-01 0.000000e+00 0.000000e+00
1.052954e-01 0.000000e+00 0.000000e+00
9.435080e-02 0.000000e+00 0.000000e+00
8.037895e-02 0.000000e+00 0.000000e+00
6.392429e-02 0.000000e+00 0.000000e+00
4.554915e-02 0.000000e+00 0.000000e+00
2.594555e-02 0.000000e+00 0.000000e+00
5.789674e-03 0.000000e+00 0.000000e+00
-1.432183e-02 0.000000e+00 0.000000e+00
-3.355940e-02 0.000000e+00 0.000000e+00
-5.144072e-02 0.000000e+00 0.000000e+00
-6.754874e-02 0.000000e+00 0.000000e+00
-8.178388e-02 0.000000e+00 0.000000e+00
-9.391084e-02 0.000000e+00 0.000000e+00
-1.036809e-01 0.000000e+00 0.000000e+00
-1.104926e-01 0.000000e+00 0.000000e+00
-1.137982e-01 0.000000e+00 0.000000e+00
-1.126537e-01 0.000000e+00 0.000000e+00
-1.063640e-01 0.000000e+00 0.000000e+00
-9.451576e-02 0.000000e+00 0.000000e+00
-7.788966e-02 0.000000e+00 0.000000e+00
-5.792923e-02 0.000000e+00 0.000000e+00
-3.767186e-02 0.000000e+00 0.000000e+00
-1.958414e-02 0.000000e+00 0.000000e+00
-4.462266e-03 0.000000e+00 0.000000e+00
7.270450e-03 0.000000e+00 0.000000e+00
1.326878e-02 0.000000e+00 0.000000e+00
1.943994e-02 0.000000e+00 0.000000e+00
0.000000e+00 0.000000e+00 0.000000e+00
0.000000e+00 5.094957e-14 0.000000e+00
-9.730950e-03 -5.640420e-14 0.000000e+00
1.852456e-02 -5.020477e-14 0.000000e+00
4.290402e-02 -2.707075e-14 0.000000e+00
6.322679e-02 1.529190e-14 0.000000e+00
7.922032e-02 -1.507039e-14 0.000000e+00
9.284512e-02 2.890436e-14 0.000000e+00
1.035367e-01 -8.822982e-16 0.000000e+00
1.113258e-01 1.649350e-15 0.000000e+00
1.160079e-01 -1.810370e-15 0.000000e+00
1.178152e-01 -1.267383e-14 0.000000e+00
1.168093e-01 1.803934e-15 0.000000e+00
1.127833e-01 7.676770e-15 0.000000e+00
1.052954e-01 -8.796511e-15 0.000000e+00
9.435080e-02 1.772894e-14 0.000000e+00
8.037895e-02 2.630968e-14 0.000000e+00
6.392429e-02 -3.480592e-14 0.000000e+00
4.554915e-02 5.420324e-15 0.000000e+00
2.594555e-02 -1.578267e-14 0.000000e+00
5.789674e-03 3.761369e-15 0.000000e+00
-1.432183e-02 3.497427e-15 0.000000e+00
-3.355940e-02 4.706311e-15 0.000000e+00
-5.144072e-02 9.022470e-15 0.000000e+00
-6.754874e-02 2.104111e-14 0.000000e+00
-8.178388e-02 -2.420432e-14 0.000000e+00
-9.391084e-02 3.040046e-14 0.000000e+00
-1.036809e-01 -2.580689e-14 0.000000e+00
-1.104926e-01 2.026836e-14 0.000000e+00
-1.137982e-01 -3.489137e-14 0.000000e+00
-1.126537e-01 1.492111e-14 0.000000e+00
-1.063640e-01 6.094724e-16 0.000000e+00
-9.451576e-02 -1.245131e-14 0.000000e+00
-7.788966e-02 7.575527e-15 0.000000e+00
-5.792923e-02 1.511715e-14 0.000000e+00
-3.767186e-02 -3.006685e-14 0.000000e+00
-1.958414e-02 1.187953e-13 0.000000e+00
-4.462266e-03 -9.837971e-14 0.000000e+00
7.270450e-03 5.199584e-14 0.000000e+00
1.326878e-02 -7.291109e-14 0.000000e+00
1.943994e-02 9.923758e-15 0.000000e+00
0.000000e+00 -1.889683e-14 0.000000e+00
0.000000e+00 1.356817e-13 0.000000e+00
-9.730950e-03 -3.199435e-14 0.000000e+00
1.852456e-02 -4.366954e-14 0.000000e+00
4.290402e-02 -6.792136e-14 0.000000e+00
6.322679e-02 7.611139e-14 0.000000e+00
7.922032e-02 -3.484500e-14 0.000000e+00
9.284512e-02 3.408008e-14 0.000000e+00
1.035367e-01 -1.562912e-14 0.000000e+00
1.113258e-01 3.021388e-14 0.000000e+00
1.160079e-01 2.161102e-15 0.000000e+00
1.178152e-01 -5.067402e-15 0.000000e+00
1.168093e-01 -1.127807e-16 0.000000e+00
1.127833e-01 -1.745988e-15 0.000000e+00
1.052954e-01 -7.096767e-15 0.000000e+00
9.435080e-02 3.669619e-14 0.000000e+00
8.037895e-02 4.100865e-14 0.000000e+00
6.392429e-02 -5.498550e-14 0.000000e+00
4.554915e-02 1.285185e-14 0.000000e+00
2.594555e-02 -2.182181e-14 0.000000e+00
5.789674e-03 1.444050e-14 0.000000e+00
-1.432183e-02 -1.130923e-14 0.000000e+00
-3.355940e-02 -7.060809e-17 0.000000e+00
-5.144072e-02 2.029761e-14 0.000000e+00
-6.754874e-02 1.010427e-14 0.000000e+00
-8.178388e-02 -1.952491e-14 0.000000e+00
-9.391084e-02 2.326294e-14 0.000000e+00
-1.036809e-01 -1.828364e-14 0.000000e+00
-1.104926e-01 -2.400536e-15 0.000000e+00
-1.137982e-01 -4.264363e-14 0.000000e+00
-1.126537e-01 4.806735e-15 0.000000e+00
-1.063640e-01 7.567436e-15 0.000000e+00
-9.451576e-02 -2.688432e-14 0.000000e+00
-7.788966e-02 6.570351e-15 0.000000e+00
-5.792923e-02 6.626736e-14 0.000000e+00
-3.767186e-02 -2.138574e-14 0.000000e+00
-1.958414e-02 8.924066e-14 0.000000e+00
-4.462266e-03 -5.442157e-14 0.000000e+00
7.270450e-03 -5.282499e-14 0.000000e+00
1.326878e-02 1.824353e-14 0.000000e+00
1.943994e-02 1.222229e-14 0.000000e+00
0.000000e+00 -1.623148e-13 0.000000e+00
0.000000e+00 6.616173e-14 0.000000e+00
-9.730950e-03 1.797423e-14 0.000000e+00
1.852456e-02 2.224181e-14 0.000000e+00
4.290402e-02 -7.936559e-14 0.000000e+00
6.322679e-02 6.908181e-14 0.000000e+00
7.922032e-02 -1.258259e-14 0.000000e+00
9.284512e-02 7.040915e-15 0.000000e+00
1.035367e-01 -1.587540e-14 0.000000e+00
1.113258e-01 5.391524e-14 0.000000e+00
1.160079e-01 -1.035727e-14 0.000000e+00
1.178152e-01 1.057478e-14 0.000000e+00
1.168093e-01 -1.836887e-14 0.000000e+00
1.127833e-01 -1.052039e-14 0.000000e+00
1.052954e-01 -7.472077e-15 0.000000e+00
9.435080e-02 2.974198e-14 0.000000e+00
8.037895e-02 4.567108e-14 0.000000e+00
6.392429e-02 -4.828044e-14 0.000000e+00
4.554915e-02 2.000672e-14 0.000000e+00
2.594555e-02 -9.247211e-15 0.000000e+00
5.789674e-03 1.133376e-14 0.000000e+00
-1.432183e-02 -2.351561e-14 0.000000e+00
-3.355940e-02 1.426382e-14 0.000000e+00
-5.144072e-02 1.620528e-14 0.000000e+00
-6.754874e-02 2.220696e-14 0.000000e+00
-8.178388e-02 -4.731966e-14 0.000000e+00
-9.391084e-02 2.243401e-14 0.000000e+00
-1.036809e-01 -3.062269e-14 0.000000e+00
-1.104926e-01 -2.119935e-16 0.000000e+00
-1.137982e-01 -5.257965e-14 0.000000e+00
-1.126537e-01 1.464407e-14 0.000000e+00
-1.063640e-01 -5.365496e-15 0.000000e+00
-9.451576e-02 -1.622972e-14 0.000000e+00
-7.788966e-02 -2.283593e-14 0.000000e+00
-5.792923e-02 1.262370e-13 0.000000e+00
-3.767186e-02 -8.783250e-14 0.000000e+00
-1.958414e-02 1.600335e-13 0.000000e+00
-4.462266e-03 -1.538961e-13 0.000000e+00
7.270450e-03 1.532738e-13 0.000000e+00
1.326878e-02 -3.269885e-14 0.000000e+00
1.943994e-02 -3.021217e-15 0.000000e+00
0.000000e+00 -2.715840e-13 0.000000e+00
0.000000e+00 -1.188366e-13 0.000000e+00
-9.730950e-03 -8.849914e-14 0.000000e+00
1.852456e-02 -1.591912e-14 0.000000e+00
4.290402e-02 -8.481827e-14 0.000000e+00
6.322679e-02 3.612920e-14 0.000000e+00
7.922032e-02 1.131511e-14 0.000000e+00
9.284512e-02 -9.892140e-15 0.000000e+00
1.035367e-01 -2.513348e-14 0.000000e+00
1.113258e-01 3.573376e-14 0.000000e+00
1.160079e-01 -6.322755e-15 0.000000e+00
1.178152e-01 -6.895027e-15 0.000000e+00
1.168093e-01 -2.677214e-14 0.000000e+00
1.127833e-01 4.464344e-15 0.000000e+00
1.052954e-01 3.489235e-15 0.000000e+00
9.435080e-02 2.778343e-14 0.000000e+00
8.037895e-02 4.556066e-14 0.000000e+00
6.392429e-02 -4.560219e-14 0.000000e+00
4.554915e-02 8.814183e-15 0.000000e+00
2.594555e-02 -4.577850e-15 0.000000e+00
5.789674e-03 1.169347e-14 0.000000e+00
-1.432183e-02 -2.375905e-14 0.000000e+00
-3.355940e-02 7.478207e-16 0.000000e+00
-5.144072e-02 3.902519e-14 0.000000e+00
-6.754874e-02 1.730870e-14 0.000000e+00
-8.178388e-02 -6.119934e-15 0.000000e+00
-9.391084e-02 -3.106893e-15 0.000000e+00
-1.036809e-01 -1.631823e-14 0.000000e+00
-1.104926e-01 -1.362661e-14 0.000000e+00
-1.137982e-01 -2.379025e-14 0.000000e+00
-1.126537e-01 1.930764e-14 0.000000e+00
-1.063640e-01 1.835447e-14 0.000000e+00
-9.451576e-02 -6.905856e-15 0.000000e+00
-7.788966e-02 -1.251256e-14 0.000000e+00
-5.792923e-02 7.435274e-14 0.000000e+00
-3.767186e-02 -9.052671e-14 0.000000e+00
-1.958414e-02 7.457643e-14 0.000000e+00
-4.462266e-03 -1.308743e-13 0.000000e+00
7.270450e-03 6.630983e-14 0.000000e+00
1.326878e-02 4.590241e-14 0.000000e+00
1.943994e-02 -1.983076e-14 0.000000e+00
0.000000e+00 -1.131971e-13 0.000000e+00
0.000000e+00 1.102166e-13 0.000000e+00
-9.730950e-03 -1.933299e-13 0.000000e+00
1.852456e-02 3.001661e-14 0.000000e+00
4.290402e-02 -8.772217e-14 0.000000e+00
6.322679e-02 4.233930e-14 0.000000e+00
7.922032e-02 -2.220791e-14 0.000000e+00
9.284512e-02 -1.028227e-15 0.000000e+00
1.035367e-01 -2.839350e-14 0.000000e+00
1.113258e-01 2.227895e-14 0.000000e+00
1.160079e-01 -1.646986e-17 0.000000e+00
1.178152e-01 -9.329701e-15 0.000000e+00
1.168093e-01 -2.805463e-14 0.000000e+00
1.127833e-01 7.204360e-15 0.000000e+00
1.052954e-01 -8.131839e-15 0.000000e+00
9.435080e-02 1.636722e-14 0.000000e+00
8.037895e-02 1.797652e-14 0.000000e+00
6.392429e-02 -2.887989e-14 0.000000e+00
4.554915e-02 -7.032225e-16 0.000000e+00
2.594555e-02 3.351835e-16 0.000000e+00
5.789674e-03 6.946797e-15 0.000000e+00
-1.432183e-02 -1.562970e-14 0.000000e+00
-3.355940e-02 1.153850e-14 0.000000e+00
-5.144072e-02 -6.323744e-15 0.000000e+00
-6.754874e-02 2.943908e-15 0.000000e+00
-8.178388e-02 -1.296452e-14 0.000000e+00
-9.391084e-02 -1.197237e-14 0.000000e+00
-1.036809e-01 -2.582974e-14 0.000000e+00
-1.104926e-01 5.613152e-16 0.000000e+00
-1.137982e-01 -3.209079e-14 0.000000e+00
-1.126537e-01 -5.119131e-15 0.000000e+00
-1.063640e-01 1.956139e-15 0.000000e+00
-9.451576e-02 -1.190732e-14 0.000000e+00
-7.788966e-02 9.191838e-16 0.000000e+00
-5.792923e-02 5.309849e-14 0.000000e+00
-3.767186e-02 -4.803027e-14 0.000000e+00
-1.958414e-02 9.081841e-14 0.000000e+00
-4.462266e-03 -1.664365e-13 0.000000e+00
7.270450e-03 1.579590e-13 0.000000e+00
1.326878e-02 -9.897109e-14 0.000000e+00
1.943994e-02 7.453660e-14 0.000000e+00
0.000000e+00 -7.212212e-14 0.000000e+00
0.000000e+00 0.000000e+00 0.000000e+00
-9.730950e-03 0.000000e+00 0.000000e+00
1.852456e-02 0.000000e+00 0.000000e+00
4.290402e-02 0.000000e+00 0.000000e+00
6.322679e-02 0.000000e+00 0.000000e+00
7.922032e-02 0.000000e+00 0.000000e+00
9.284512e-02 0.000000e+00 0.000000e+00
1.035367e-01 0.000000e+00 0.000000e+00
1.113258e-01 0.000000e+00 0.000000e+00
1.160079e-01 0.000000e+00 0.000000e+00
1.178152e-01 0.000000e+00 0.000000e+00
1.168093e-01 0.000000e+00 0.000000e+00
1.127833e-01 0.000000e+00 0.000000e+00
1.052954e-01 0.000000e+00 0.000000e+00
9.435080e-02 0.000000e+00 0.000000e+00
8.037895e-02 0.000000e+00 0.000000e+00
6.392429e-02 0.000000e+00 0.000000e+00
4.554915e-02 0.000000e+00 0.000000e+00
2.594555e-02 0.000000e+00 0.000000e+00
5.789674e-03 0.000000e+00 0.000000e+00
-1.432183e-02 0.000000e+00 0.000000e+00
-3.355940e-02 0.000000e+00 0.000000e+00
-5.144072e-02 0.000000e+00 0.000000e+00
-6.754874e-02 0.000000e+00 0.000000e+00
-8.178388e-02 0.000000e+00 0.000000e+00
-9.391084e-02 0.000000e+00 0.000000e+00
-1.036809e-01 0.000000e+00 0.000000e+00
-1.104926e-01 0.000000e+00 0.000000e+00
-1.137982e-01 0.000000e+00 0.000000e+00
-1.126537e-01 0.000000e+00 0.000000e+00
-1.063640e-01 0.000000e+00 0.000000e+00
-9.451576e-02 0.000000e+00 0.000000e+00
-7.788966e-02 0.000000e+00 0.000000e+00
-5.792923e-02 0.000000e+00 0.000000e+00
-3.767186e-02 0.000000e+00 0.000000e+00
-1.958414e-02 0.000000e+00 0.000000e+00
-4.462266e-03 0.000000e+00 0.000000e+00
7.270450e-03 0.000000e+00 0.000000e+00
1.326878e-02 0.000000e+00 0.000000e+00
1.943994e-02 0.000000e+00 0.000000e+00
0.000000e+00 0.000000e+00 0.000000e+00
0.000000e+00 0.000000e+00 1.167393e-02
-6.804843e-04 0.000000e+00 -1.061812e-02
4.859227e-03 0.000000e+00 -2.593759e-02
1.293653e-02 0.000000e+00 -1.929499e-02
2.136175e-02 0.000000e+00 -1.758678e-02
3.037427e-02 0.000000e+00 -1.520663e-02
3.929273e-02 0.000000e+00 -1.354225e-02
4.755508e-02 0.000000e+00 -1.121114e-02
5.467884e-02 0.000000e+00 -8.724181e-03
5.987144e-02 0.000000e+00 -5.906857e-03
6.230370e-02 0.000000e+00 -3.007101e-03
6.145567e-02 0.000000e+00 1.458681e-05
5.744885e-02 0.000000e+00 3.190769e-03
5.058914e-02 0.000000e+00 6.519456e-03
4.070673e-02 0.000000e+00 9.799805e-03
2.736817e-02 0.000000e+00 1.281841e-02
1.070142e-02 0.000000e+00 1.529904e-02
-8.474363e-03 0.000000e+00 1.704702e-02
-2.915041e-02 0.000000e+00 1.795047e-02
-5.023733e-02 0.000000e+00 1.809881e-02
-7.067132e-02 0.000000e+00 1.741159e-02
-8.955594e-02 0.000000e+00 1.600733e-02
-1.062640e-01 0.000000e+00 1.412814e-02
-1.203638e-01 0.000000e+00 1.198931e-02
-1.316909e-01 0.000000e+00 9.723360e-03
-1.401750e-01 0.000000e+00 7.311982e-03
-1.458370e-01 0.000000e+00 4.587937e-03
-1.485395e-01 0.000000e+00 1.441995e-03
-1.480360e-01 0.000000e+00 -2.383085e-03
-1.435600e-01 0.000000e+00 -7.056953e-03
-1.344343e-01 0.000000e+00 -1.237872e-02
-1.202309e-01 0.000000e+00 -1.756793e-02
-1.015265e-01 0.000000e+00 -2.176161e-02
-7.960228e-02 0.000000e+00 -2.374314e-02
-5.695374e-02 0.000000e+00 -2.284369e-02
-3.579119e-02 0.000000e+00 -1.993930e-02
-1.852725e-02 0.000000e+00 -1.682221e-02
-5.938787e-03 0.000000e+00 -1.090469e-02
2.748413e-03 0.000000e+00 -1.090340e-02
7.977580e-03 0.000000e+00 1.656970e-03
0.000000e+00 0.000000e+00 1.896046e-02
0.000000e+00 9.206164e-15 1.167393e-02
-6.804843e-04 -1.582287e-14 -1.061812e-02
4.859227e-03 1.849533e-14 -2.593759e-02
1.293653e-02 -1.774977e-14 -1.929499e-02
2.136175e-02 -3.114762e-15 -1.758678e-02
3.037427e-02 2.531474e-14 -1.520663e-02
3.929273e-02 1.015200e-14 -1.354225e-02
4.755508e-02 6.863000e-15 -1.121114e-02
5.467884e-02 -3.038431e-14 -8.724181e-03
5.987144e-02 1.320785e-14 -5.906857e-03
6.230370e-02 2.946888e-14 -3.007101e-03
6.145567e-02 4.464606e-14 1.458681e-05
5.744885e-02 -1.142127e-14 3.190769e-03
5.058914e-02 -3.079678e-14 6.519456e-03
4.070673e-02 -1.775487e-15 9.799805e-03
2.736817e-02 -2.188267e-14 1.281841e-02
1.070142e-02 2.460261e-14 1.529904e-02
-8.474363e-03 3.381044e-15 1.704702e-02
-2.915041e-02 5.052495e-15 1.795047e-02
-5.023733e-02 5.568039e-15 1.809881e-02
-7.067132e-02 -9.743859e-15 1.741159e-02
-8.955594e-02 6.056438e-15 1.600733e-02
-1.062640e-01 8.599388e-15 1.412814e-02
-1.203638e-01 -2.244173e-14 1.198931e-02
-1.316909e-01 2.250196e-14 9.723360e-03
-1.401750e-01 -2.672343e-16 7.311982e-03
-1.458370e-01 -1.474586e-14 4.587937e-03
-1.485395e-01 4.009944e-15 1.441995e-03
-1.480360e-01 1.918292e-14 -2.383085e-03
-1.435600e-01 -6.304949e-15 -7.056953e-03
-1.344343e-01 -1.961951e-14 -1.237872e-02
-1.202309e-01 1.265866e-14 -1.756793e-02
-1.015265e-01 -1.192402e-14 -2.176161e-02
-7.960228e-02 7.120973e-15 -2.374314e-02
-5.695374e-02 -4.733164e-16 -2.284369e-02
-3.579119e-02 -2.306346e-14 -1.993930e-02
-1.852725e-02 -3.362500e-14 -1.682221e-02
-5.938787e-03 -2.315923e-15 -1.090469e-02
2.748413e-03 -8.802425e-14 -1.090340e-02
7.977580e-03 8.493958e-14 1.656970e-03
0.000000e+00 -3.766885e-14 1.896046e-02
0.000000e+00 -5.277687e-14 1.167393e-02
-6.804843e-04 1.906728e-14 -1.061812e-02
4.859227e-03 2.228698e-14 -2.593759e-02
1.293653e-02 -1.812373e-15 -1.929499e-02
2.136175e-02 8.052249e-15 -1.758678e-02
3.037427e-02 2.423453e-15 -1.520663e-02
3.929273e-02 4.893969e-14 -1.354225e-02
4.755508e-02 -7.174640e-16 -1.121114e-02
5.467884e-02 1.038881e-14 -8.724181e-03
5.987144e-02 4.303428e-14 -5.906857e-03
6.230370e-02 3.843260e-14 -3.007101e-03
6.145567e-02 3.034735e-14 1.458681e-05
5.744885e-02 -3.449758e-14 3.190769e-03
5.058914e-02 -3.699444e-14 6.519456e-03
4.070673e-02 6.704680e-15 9.799805e-03
2.736817e-02 -4.646035e-14 1.281841e-02
1.070142e-02 4.243159e-14 1.529904e-02
-8.474363e-03 -7.413368e-15 1.704702e-02
-2.915041e-02 -9.227415e-15 1.795047e-02
-5.023733e-02 2.334057e-14 1.809881e-02
-7.067132e-02 -3.204737e-14 1.741159e-02
-8.955594e-02 2.478548e-14 1.600733e-02
-1.062640e-01 -9.422652e-16 1.412814e-02
-1.203638e-01 -4.733887e-14 1.198931e-02
-1.316909e-01 4.041892e-14 9.723360e-03
-1.401750e-01 -1.291625e-14 7.311982e-03
-1.458370e-01 -1.528523e-14 4.587937e-03
-1.485395e-01 -8.748075e-15 1.441995e-03
-1.480360e-01 3.941500e-14 -2.383085e-03
-1.435600e-01 -1.483899e-14 -7.056953e-03
-1.344343e-01 -1.689598e-14 -1.237872e-02
-1.202309e-01 2.915171e-14 -1.756793e-02
-1.015265e-01 2.156524e-14 -2.176161e-02
-7.960228e-02 2.469615e-14 -2.374314e-02
-5.695374e-02 -8.705263e-15 -2.284369e-02
-3.579119e-02 -1.730626e-14 -1.993930e-02
-1.852725e-02 -1.254821e-14 -1.682221e-02
-5.938787e-03 -3.589444e-14 -1.090469e-02
2.748413e-03 -6.362700e-15 -1.090340e-02
7.977580e-03 1.701166e-14 1.656970e-03
0.000000e+00 -1.229264e-16 1.896046e-02
0.000000e+00 -3.441140e-14 1.167393e-02
-6.804843e-04 1.763852e-14 -1.061812e-02
4.859227e-03 5.006829e-16 -2.593759e-02
1.293653e-02 4.129566e-14 -1.929499e-02
2.136175e-02 -2.345179e-14 -1.758678e-02
3.037427e-02 -1.801648e-15 -1.520663e-02
3.929273e-02 4.412639e-14 -1.354225e-02
4.755508e-02 -1.731302e-15 -1.121114e-02
5.467884e-02 -9.829734e-15 -8.724181e-03
5.987144e-02 2.753582e-14 -5.906857e-03
6.230370e-02 6.333501e-14 -3.007101e-03
6.145567e-02 1.106324e-15 1.458681e-05
5.744885e-02 -2.483342e-14 3.190769e-03
5.058914e-02 -3.263090e-14 6.519456e-03
4.070673e-02 -1.541754e-14 9.799805e-03
2.736817e-02 -3.471000e-14 1.281841e-02
1.070142e-02 3.852323e-14 1.529904e-02
-8.474363e-03 -6.278371e-15 1.704702e-02
-2.915041e-02 1.011819e-14 1.795047e-02
-5.023733e-02 1.743798e-14 1.809881e-02
-7.067132e-02 -2.443098e-14 1.741159e-02
-8.955594e-02 2.852676e-14 1.600733e-02
-1.062640e-01 5.123104e-16 1.412814e-02
-1.203638e-01 -5.838651e-14 1.198931e-02
-1.316909e-01 3.946683e-14 9.723360e-03
-1.401750e-01 -2.968882e-14 7.311982e-03
-1.458370e-01 -8.940069e-15 4.587937e-03
-1.485395e-01 1.318685e-15 1.441995e-03
-1.480360e-01 3.251411e-14 -2.383085e-03
-1.435600e-01 -2.564812e-14 -7.056953e-03
-1.344343e-01 -4.926453e-14 -1.237872e-02
-1.202309e-01 3.561692e-14 -1.756793e-02
-1.015265e-01 1.648563e-14 -2.176161e-02
-7.960228e-02 1.845176e-14 -2.374314e-02
-5.695374e-02 -6.800692e-14 -2.284369e-02
-3.579119e-02 1.291339e-14 -1.993930e-02
-1.852725e-02 -1.056499e-14 -1.682221e-02
-5.938787e-03 -1.105347e-14 -1.090469e-02
2.748413e-03 -1.175434e-13 -1.090340e-02
7.977580e-03 1.514680e-13 1.656970e-03
0.000000e+00 -3.272720e-14 1.896046e-02
0.000000e+00 -4.674091e-14 1.167393e-02
-6.804843e-04 6.919148e-14 -1.061812e-02
4.859227e-03 -3.061351e-15 -2.593759e-02
1.293653e-02 -2.552458e-16 -1.929499e-02
2.136175e-02 -3.094093e-15 -1.758678e-02
3.037427e-02 3.219644e-15 -1.520663e-02
3.929273e-02 1.643809e-14 -1.354225e-02
4.755508e-02 -1.193663e-14 -1.121114e-02
5.467884e-02 -2.309607e-14 -8.724181e-03
5.987144e-02 2.936556e-14 -5.906857e-03
6.230370e-02 2.550141e-14 -3.007101e-03
6.145567e-02 1.332902e-14 1.458681e-05
5.744885e-02 -6.637490e-15 3.190769e-03
5.058914e-02 -4.722726e-14 6.519456e-03
4.070673e-02 9.313270e-15 9.799805e-03
2.736817e-02 -3.894703e-14 1.281841e-02
1.070142e-02 1.797470e-14 1.529904e-02
-8.474363e-03 1.875302e-14 1.704702e-02
-2.915041e-02 7.661793e-15 1.795047e-02
-5.023733e-02 6.923208e-15 1.809881e-02
-7.067132e-02 -2.288432e-14 1.741159e-02
-8.955594e-02 3.370888e-14 1.600733e-02
-1.062640e-01 1.618352e-14 1.412814e-02
-1.203638e-01 -6.135193e-14 1.198931e-02
-1.316909e-01 2.624022e-14 9.723360e-03
-1.401750e-01 -3.493334e-14 7.311982e-03
-1.458370e-01 1.255959e-14 4.587937e-03
-1.485395e-01 4.228064e-15 1.441995e-03
-1.480360e-01 4.246020e-14 -2.383085e-03
-1.435600e-01 -1.946962e-14 -7.056953e-03
-1.344343e-01 -3.687304e-14 -1.237872e-02
-1.202309e-01 4.751522e-14 -1.756793e-02
-1.015265e-01 3.062115e-14 -2.176161e-02
-7.960228e-02 -1.286430e-14 -2.374314e-02
-5.695374e-02 -9.854367e-14 -2.284369e-02
-3.579119e-02 -1.846985e-15 -1.993930e-02
-1.852725e-02 8.645704e-15 -1.682221e-02
-5.938787e-03 -6.519586e-14 -1.090469e-02
2.748413e-03 -2.784737e-14 -1.090340e-02
7.977580e-03 2.804084e-14 1.656970e-03
0.000000e+00 8.031077e-15 1.896046e-02
0.000000e+00 -9.932212e-14 1.167393e-02
-6.804843e-04 4.076499e-14 -1.061812e-02
4.859227e-03 -4.521018e-15 -2.593759e-02
1.293653e-02 -2.507457e-15 -1.929499e-02
2.136175e-02 3.300176e-14 -1.758678e-02