# vtk DataFile Version 3.0
vtk output
ASCII
DATASET UNSTRUCTURED_GRID
POINTS 11767 float
0.000000e+00 0.000000e+00 0.000000e+00
1.460000e-02 0.000000e+00 0.000000e+00
2.920000e-02 0.000000e+00 0.000000e+00
4.380000e-02 0.000000e+00 0.000000e+00
5.840000e-02 0.000000e+00 0.000000e+00
7.300000e-02 0.000000e+00 0.000000e+00
8.760000e-02 0.000000e+00 0.000000e+00
1.022000e-01 0.000000e+00 0.000000e+00
1.168000e-01 0.000000e+00 0.000000e+00
1.314000e-01 0.000000e+00 0.000000e+00
1.460000e-01 0.000000e+00 0.000000e+00
1.606000e-01 0.000000e+00 0.000000e+00
1.752000e-01 0.000000e+00 0.000000e+00
1.898000e-01 0.000000e+00 0.000000e+00
2.044000e-01 0.000000e+00 0.000000e+00
2.190000e-01 0.000000e+00 0.000000e+00
2.336000e-01 0.000000e+00 0.000000e+00
2.482000e-01 0.000000e+00 0.000000e+00
2.628000e-01 0.000000e+00 0.000000e+00
2.774000e-01 0.000000e+00 0.000000e+00
2.920000e-01 0.000000e+00 0.000000e+00
3.066000e-01 0.000000e+00 0.000000e+00
3.212000e-01 0.000000e+00 0.000000e+00
3.358000e-01 0.000000e+00 0.000000e+00
3.504000e-01 0.000000e+00 0.000000e+00
3.650000e-01 0.000000e+00 0.000000e+00
3.796000e-01 0.000000e+00 0.000000e+00
3.942000e-01 0.000000e+00 0.000000e+00
4.088000e-01 0.000000e+00 0.000000e+00
4.234000e-01 0.000000e+00 0.000000e+00
4.380000e-01 0.000000e+00 0.000000e+00
4.526000e-01 0.000000e+00 0.000000e+00
4.672000e-01 0.000000e+00 0.000000e+00
4.818000e-01 0.000000e+00 0.000000e+00
4.964000e-01 0.000000e+00 0.000000e+00
5.110000e-01 0.000000e+00 0.000000e+00
5.256000e-01 0.000000e+00 0.000000e+00
5.402000e-01 0.000000e+00 0.000000e+00
5.548000e-01 0.000000e+00 0.000000e+00
5.694000e-01 0.000000e+00 0.000000e+00
5.840000e-01 0.000000e+00 0.000000e+00
0.000000e+00 1.460000e-02 0.000000e+00
1.460000e-02 1.460000e-02 0.000000e+00
2.920000e-02 1.460000e-02 0.000000e+00
4.380000e-02 1.460000e-02 0.000000e+00
5.840000e-02 1.460000e-02 0.000000e+00
7.300000e-02 1.460000e-02 0.000000e+00
8.760000e-02 1.460000e-02 0.000000e+00
1.022000e-01 1.460000e-02 0.000000e+00
1.168000e-01 1.460000e-02 0.000000e+00
1.314000e-01 1.460000e-02 0.000000e+00
1.460000e-01 1.460000e-02 0.000000e+00
1.606000e-01 1.460000e-02 0.000000e+00
1.752000e-01 1.460000e-02 0.000000e+00
1.898000e-01 1.460000e-02 0.000000e+00
2.044000e-01 1.460000e-02 0.000000e+00
2.190000e-01 1.460000e-02 0.000000e+00
2.336000e-01 1.460000e-02 0.000000e+00
2.482000e-01 1.460000e-02 0.000000e+00
2.628000e-01 1.460000e-02 0.000000e+00
2.774000e-01 1.460000e-02 0.000000e+00
2.920000e-01 1.460000e-02 0.000000e+00
3.066000e-01 1.460000e-02 0.000000e+00
3.212000e-01 1.460000e-02 0.000000e+00
3.358000e-01 1.460000e-02 0.000000e+00
3.504000e-01 1.460000e-02 0.000000e+00
3.650000e-01 1.460000e-02 0.000000e+00
3.796000e-01 1.460000e-02 0.000000e+00
3.942000e-01 1.460000e-02 0.000000e+00
4.088000e-01 1.460000e-02 0.000000e+00
4.234000e-01 1.460000e-02 0.000000e+00
4.380000e-01 1.460000e-02 0.000000e+00
4.526000e-01 1.460000e-02 0.000000e+00
4.672000e-01 1.460000e-02 0.000000e+00
4.818000e-01 1.460000e-02 0.000000e+00
4.964000e-01 1.460000e-02 0.000000e+00
5.110000e-01 1.460000e-02 0.000000e+00
5.256000e-01 1.460000e-02 0.000000e+00
5.402000e-01 1.460000e-02 0.000000e+00
5.548000e-01 1.460000e-02 0.000000e+00
5.694000e-01 1.460000e-02 0.000000e+00
5.840000e-01 1.460000e-02 0.000000e+00
0.000000e+00 2.920000e-02 0.000000e+00
1.460000e-02 2.920000e-02 0.000000e+00
2.920000e-02 2.920000e-02 0.000000e+00
4.380000e-02 2.920000e-02 0.000000e+00
5.840000e-02 2.920000e-02 0.000000e+00
7.300000e-02 2.920000e-02 0.000000e+00
8.760000e-02 2.920000e-02 0.000000e+00
1.022000e-01 2.920000e-02 0.000000e+00
1.168000e-01 2.920000e-02 0.000000e+00
1.314000e-01 2.920000e-02 0.000000e+00
1.460000e-01 2.920000e-02 0.000000e+00
1.606000e-01 2.920000e-02 0.000000e+00
1.752000e-01 2.920000e-02 0.000000e+00
1.898000e-01 2.920000e-02 0.000000e+00
2.044000e-01 2.920000e-02 0.000000e+00
2.190000e-01 2.920000e-02 0.000000e+00
2.336000e-01 2.920000e-02 0.000000e+00
2.482000e-01 2.920000e-02 0.000000e+00
2.628000e-01 2.920000e-02 0.000000e+00
2.774000e-01 2.920000e-02 0.000000e+00
2.920000e-01 2.920000e-02 0.000000e+00
3.066000e-01 2.920000e-02 0.000000e+00
3.212000e-01 2.920000e-02 0.000000e+00
3.358000e-01 2.920000e-02 0.000000e+00
3.504000e-01 2.920000e-02 0.000000e+00
3.650000e-01 2.920000e-02 0.000000e+00
3.796000e-01 2.920000e-02 0.000000e+00
3.942000e-01 2.920000e-02 0.000000e+00
4.088000e-01 2.920000e-02 0.000000e+00
4.234000e-01 2.920000e-02 0.000000e+00
4.380000e-01 2.920000e-02 0.000000e+00
4.526000e-01 2.920000e-02 0.000000e+00
4.672000e-01 2.920000e-02 0.000000e+00
4.818000e-01 2.920000e-02 0.000000e+00
4.964000e-01 2.920000e-02 0.000000e+00
5.110000e-01 2.920000e-02 0.000000e+00
5.256000e-01 2.920000e-02 0.000000e+00
5.402000e-01 2.920000e-02 0.000000e+00
5.548000e-01 2.920000e-02 0.000000e+00
5.694000e-01 2.920000e-02 0.000000e+00
5.840000e-01 2.920000e-02 0.000000e+00
0.000000e+00 4.380000e-02 0.000000e+00
1.460000e-02 4.380000e-02 0.000000e+00
2.920000e-02 4.380000e-02 0.000000e+00
4.380000e-02 4.380000e-02 0.000000e+00
5.840000e-02 4.380000e-02 0.000000e+00
7.300000e-02 4.380000e-02 0.000000e+00
8.760000e-02 4.380000e-02 0.000000e+00
1.022000e-01 4.380000e-02 0.000000e+00
1.168000e-01 4.380000e-02 0.000000e+00
1.314000e-01 4.380000e-02 0.000000e+00
1.460000e-01 4.380000e-02 0.000000e+00
1.606000e-01 4.380000e-02 0.000000e+00
1.752000e-01 4.380000e-02 0.000000e+00
1.898000e-01 4.380000e-02 0.000000e+00
2.044000e-01 4.380000e-02 0.000000e+00
2.190000e-01 4.380000e-02 0.000000e+00
2.336000e-01 4.380000e-02 0.000000e+00
2.482000e-01 4.380000e-02 0.000000e+00
2.628000e-01 4.380000e-02 0.000000e+00
2.774000e-01 4.380000e-02 0.000000e+00
2.920000e-01 4.380000e-02 0.000000e+00
3.066000e-01 4.380000e-02 0.000000e+00
3.212000e-01 4.380000e-02 0.000000e+00
3.358000e-01 4.380000e-02 0.000000e+00
3.504000e-01 4.380000e-02 0.000000e+00
3.650000e-01 4.380000e-02 0.000000e+00
3.796000e-01 4.380000e-02 0.000000e+00
3.942000e-01 4.380000e-02 0.000000e+00
4.088000e-01 4.380000e-02 0.000000e+00
4.234000e-01 4.380000e-02 0.000000e+00
4.380000e-01 4.380000e-02 0.000000e+00
4.526000e-01 4.380000e-02 0.000000e+00
4.672000e-01 4.380000e-02 0.000000e+00
4.818000e-01 4.380000e-02 0.000000e+00
4.964000e-01 4.380000e-02 0.000000e+00
5.110000e-01 4.380000e-02 0.000000e+00
5.256000e-01 4.380000e-02 0.000000e+00
5.402000e-01 4.380000e-02 0.000000e+00
5.548000e-01 4.380000e-02 0.000000e+00
5.694000e-01 4.380000e-02 0.000000e+00
5.840000e-01 4.380000e-02 0.000000e+00
0.000000e+00 5.840000e-02 0.000000e+00
1.460000e-02 5.840000e-02 0.000000e+00
2.920000e-02 5.840000e-02 0.000000e+00
4.380000e-02 5.840000e-02 0.000000e+00
5.840000e-02 5.840000e-02 0.000000e+00
7.300000e-02 5.840000e-02 0.000000e+00
8.760000e-02 5.840000e-02 0.000000e+00
1.022000e-01 5.840000e-02 0.000000e+00
1.168000e-01 5.840000e-02 0.000000e+00
1.314000e-01 5.840000e-02 0.000000e+00
1.460000e-01 5.840000e-02 0.000000e+00
1.606000e-01 5.840000e-02 0.000000e+00
1.752000e-01 5.840000e-02 0.000000e+00
1.898000e-01 5.840000e-02 0.000000e+00
2.044000e-01 5.840000e-02 0.000000e+00
2.190000e-01 5.840000e-02 0.000000e+00
2.336000e-01 5.840000e-02 0.000000e+00
2.482000e-01 5.840000e-02 0.000000e+00
2.628000e-01 5.840000e-02 0.000000e+00
2.774000e-01 5.840000e-02 0.000000e+00
2.920000e-01 5.840000e-02 0.000000e+00
3.066000e-01 5.840000e-02 0.000000e+00
3.212000e-01 5.840000e-02 0.000000e+00
3.358000e-01 5.840000e-02 0.000000e+00
3.504000e-01 5.840000e-02 0.000000e+00
3.650000e-01 5.840000e-02 0.000000e+00
3.796000e-01 5.840000e-02 0.000000e+00
3.942000e-01 5.840000e-02 0.000000e+00
4.088000e-01 5.840000e-02 0.000000e+00
4.234000e-01 5.840000e-02 0.000000e+00
4.380000e-01 5.840000e-02 0.000000e+00
4.526000e-01 5.840000e-02 0.000000e+00
4.672000e-01 5.840000e-02 0.000000e+00
4.818000e-01 5.840000e-02 0.000000e+00
4.964000e-01 5.840000e-02 0.000000e+00
5.110000e-01 5.840000e-02 0.000000e+00
5.256000e-01 5.840000e-02 0.000000e+00
5.402000e-01 5.840000e-02 0.000000e+00
5.548000e-01 5.840000e-02 0.000000e+00
5.694000e-01 5.840000e-02 0.000000e+00
5.840000e-01 5.840000e-02 0.000000e+00
0.000000e+00 7.300000e-02 0.000000e+00
1.460000e-02 7.300000e-02 0.000000e+00
2.920000e-02 7.300000e-02 0.000000e+00
4.380000e-02 7.300000e-02 0.000000e+00
5.840000e-02 7.300000e-02 0.000000e+00
7.300000e-02 7.300000e-02 0.000000e+00
8.760000e-02 7.300000e-02 0.000000e+00
1.022000e-01 7.300000e-02 0.000000e+00
1.168000e-01 7.300000e-02 0.000000e+00
1.314000e-01 7.300000e-02 0.000000e+00
1.460000e-01 7.300000e-02 0.000000e+00
1.606000e-01 7.300000e-02 0.000000e+00
1.752000e-01 7.300000e-02 0.000000e+00
1.898000e-01 7.300000e-02 0.000000e+00
2.044000e-01 7.300000e-02 0.000000e+00
2.190000e-01 7.300000e-02 0.000000e+00
2.336000e-01 7.300000e-02 0.000000e+00
2.482000e-01 7.300000e-02 0.000000e+00
2.628000e-01 7.300000e-02 0.000000e+00
2.774000e-01 7.300000e-02 0.000000e+00
2.920000e-01 7.300000e-02 0.000000e+00
3.066000e-01 7.300000e-02 0.000000e+00
3.212000e-01 7.300000e-02 0.000000e+00
3.358000e-01 7.300000e-02 0.000000e+00
3.504000e-01 7.300000e-02 0.000000e+00
3.650000e-01 7.300000e-02 0.000000e+00
3.796000e-01 7.300000e-02 0.000000e+00
3.942000e-01 7.300000e-02 0.000000e+00
4.088000e-01 7.300000e-02 0.000000e+00
4.234000e-01 7.300000e-02 0.000000e+00
4.380000e-01 7.300000e-02 0.000000e+00
4.526000e-01 7.300000e-02 0.000000e+00
4.672000e-01 7.300000e-02 0.000000e+00
4.818000e-01 7.300000e-02 0.000000e+00
4.964000e-01 7.300000e-02 0.000000e+00
5.110000e-01 7.300000e-02 0.000000e+00
5.256000e-01 7.300000e-02 0.000000e+00
5.402000e-01 7.300000e-02 0.000000e+00
5.548000e-01 7.300000e-02 0.000000e+00
5.694000e-01 7.300000e-02 0.000000e+00
5.840000e-01 7.300000e-02 0.000000e+00
0.000000e+00 8.760000e-02 0.000000e+00
1.460000e-02 8.760000e-02 0.000000e+00
2.920000e-02 8.760000e-02 0.000000e+00
4.380000e-02 8.760000e-02 0.000000e+00
5.840000e-02 8.760000e-02 0.000000e+00
7.300000e-02 8.760000e-02 0.000000e+00
8.760000e-02 8.760000e-02 0.000000e+00
1.022000e-01 8.760000e-02 0.000000e+00
[...]
POINT_DATA 11767
VECTORS Velocity float
0.000000e+00 0.000000e+00 0.000000e+00
3.057987e-02 0.000000e+00 0.000000e+00
5.007807e-02 0.000000e+00 0.000000e+00
6.373038e-02 0.000000e+00 0.000000e+00
7.192405e-02 0.000000e+00 0.000000e+00
7.528326e-02 0.000000e+00 0.000000e+00
7.404734e-02 0.000000e+00 0.000000e+00
6.977908e-02 0.000000e+00 0.000000e+00
6.341712e-02 0.000000e+00 0.000000e+00
5.639801e-02 0.000000e+00 0.000000e+00
4.940733e-02 0.000000e+00 0.000000e+00
4.325057e-02 0.000000e+00 0.000000e+00
3.871769e-02 0.000000e+00 0.000000e+00
3.627448e-02 0.000000e+00 0.000000e+00
3.555926e-02 0.000000e+00 0.000000e+00
3.581230e-02 0.000000e+00 0.000000e+00
3.598810e-02 0.000000e+00 0.000000e+00
3.525577e-02 0.000000e+00 0.000000e+00
3.312472e-02 0.000000e+00 0.000000e+00
2.998908e-02 0.000000e+00 0.000000e+00
2.655906e-02 0.000000e+00 0.000000e+00
2.359691e-02 0.000000e+00 0.000000e+00
2.138957e-02 0.000000e+00 0.000000e+00
2.002253e-02 0.000000e+00 0.000000e+00
1.922872e-02 0.000000e+00 0.000000e+00
1.905175e-02 0.000000e+00 0.000000e+00
1.947361e-02 0.000000e+00 0.000000e+00
2.085296e-02 0.000000e+00 0.000000e+00
2.314244e-02 0.000000e+00 0.000000e+00
2.660768e-02 0.000000e+00 0.000000e+00
3.097888e-02 0.000000e+00 0.000000e+00
3.612906e-02 0.000000e+00 0.000000e+00
4.150801e-02 0.000000e+00 0.000000e+00
4.636671e-02 0.000000e+00 0.000000e+00
5.049569e-02 0.000000e+00 0.000000e+00
5.324870e-02 0.000000e+00 0.000000e+00
5.404588e-02 0.000000e+00 0.000000e+00
5.327933e-02 0.000000e+00 0.000000e+00
4.590732e-02 0.000000e+00 0.000000e+00
3.648496e-02 0.000000e+00 0.000000e+00
0.000000e+00 0.000000e+00 0.000000e+00
0.000000e+00 -5.270930e-14 0.000000e+00
3.057987e-02 3.853101e-15 0.000000e+00
5.007807e-02 -3.327982e-15 0.000000e+00
6.373038e-02 -5.472423e-15 0.000000e+00
7.192405e-02 -2.157058e-14 0.000000e+00
7.528326e-02 -6.903052e-15 0.000000e+00
7.404734e-02 -2.744704e-14 0.000000e+00
6.977908e-02 3.688361e-15 0.000000e+00
6.341712e-02 -4.322449e-15 0.000000e+00
5.639801e-02 -1.548841e-14 0.000000e+00
4.940733e-02 5.980152e-15 0.000000e+00
4.325057e-02 -5.185778e-14 0.000000e+00
3.871769e-02 1.932150e-14 0.000000e+00
3.627448e-02 -4.434962e-14 0.000000e+00
3.555926e-02 -4.702337e-14 0.000000e+00
3.581230e-02 -1.261544e-14 0.000000e+00
3.598810e-02 -4.534783e-14 0.000000e+00
3.525577e-02 -7.367475e-15 0.000000e+00
3.312472e-02 -7.459586e-15 0.000000e+00
2.998908e-02 -4.897075e-15 0.000000e+00
2.655906e-02 2.815429e-14 0.000000e+00
2.359691e-02 1.220035e-14 0.000000e+00
2.138957e-02 2.581790e-14 0.000000e+00
2.002253e-02 1.716265e-15 0.000000e+00
1.922872e-02 7.292386e-15 0.000000e+00
1.905175e-02 3.108717e-14 0.000000e+00
1.947361e-02 -4.329339e-14 0.000000e+00
2.085296e-02 4.628679e-14 0.000000e+00
2.314244e-02 -1.787075e-14 0.000000e+00
2.660768e-02 1.099788e-14 0.000000e+00
3.097888e-02 -7.868030e-15 0.000000e+00
3.612906e-02 7.102118e-15 0.000000e+00
4.150801e-02 -3.362736e-14 0.000000e+00
4.636671e-02 3.721769e-14 0.000000e+00
5.049569e-02 -2.971718e-14 0.000000e+00
5.324870e-02 4.652723e-14 0.000000e+00
5.404588e-02 -4.277620e-14 0.000000e+00
5.327933e-02 4.616112e-14 0.000000e+00
4.590732e-02 -7.003473e-14 0.000000e+00
3.648496e-02 6.027175e-14 0.000000e+00
0.000000e+00 2.253048e-14 0.000000e+00
0.000000e+00 -1.143873e-13 0.000000e+00
3.057987e-02 2.719223e-15 0.000000e+00
5.007807e-02 8.436068e-16 0.000000e+00
6.373038e-02 -8.991631e-15 0.000000e+00
7.192405e-02 -2.052476e-14 0.000000e+00
7.528326e-02 -3.802289e-15 0.000000e+00
7.404734e-02 -2.542671e-14 0.000000e+00
6.977908e-02 -8.295502e-15 0.000000e+00
6.341712e-02 4.800836e-16 0.000000e+00
5.639801e-02 -3.187367e-14 0.000000e+00
4.940733e-02 2.001464e-14 0.000000e+00
4.325057e-02 -8.013917e-14 0.000000e+00
3.871769e-02 3.971029e-14 0.000000e+00
3.627448e-02 -4.086953e-14 0.000000e+00
3.555926e-02 -5.421359e-14 0.000000e+00
3.581230e-02 -3.855069e-15 0.000000e+00
3.598810e-02 -3.023069e-14 0.000000e+00
3.525577e-02 -9.779689e-15 0.000000e+00
3.312472e-02 1.348100e-14 0.000000e+00
2.998908e-02 8.330777e-15 0.000000e+00
2.655906e-02 5.034555e-14 0.000000e+00
2.359691e-02 1.305746e-14 0.000000e+00
2.138957e-02 5.383345e-14 0.000000e+00
2.002253e-02 3.410221e-15 0.000000e+00
1.922872e-02 2.017428e-14 0.000000e+00
1.905175e-02 3.443231e-14 0.000000e+00
1.947361e-02 -1.603137e-14 0.000000e+00
2.085296e-02 5.011159e-14 0.000000e+00
2.314244e-02 -2.849410e-15 0.000000e+00
2.660768e-02 1.195254e-14 0.000000e+00
3.097888e-02 -5.086982e-15 0.000000e+00
3.612906e-02 9.218494e-15 0.000000e+00
4.150801e-02 -1.693512e-14 0.000000e+00
4.636671e-02 1.418289e-14 0.000000e+00
5.049569e-02 -5.923656e-15 0.000000e+00
5.324870e-02 1.398254e-14 0.000000e+00
5.404588e-02 -1.344229e-14 0.000000e+00
5.327933e-02 8.805499e-15 0.000000e+00
4.590732e-02 -1.503749e-14 0.000000e+00
3.648496e-02 3.293387e-14 0.000000e+00
0.000000e+00 -7.130014e-15 0.000000e+00
0.000000e+00 -8.235369e-14 0.000000e+00
3.057987e-02 1.641658e-14 0.000000e+00
5.007807e-02 7.641618e-15 0.000000e+00
6.373038e-02 -6.645170e-15 0.000000e+00
7.192405e-02 -1.420407e-14 0.000000e+00
7.528326e-02 3.166248e-15 0.000000e+00
7.404734e-02 -1.820234e-14 0.000000e+00
6.977908e-02 -7.107414e-15 0.000000e+00
6.341712e-02 7.268515e-16 0.000000e+00
5.639801e-02 -3.422597e-14 0.000000e+00
4.940733e-02 2.693984e-14 0.000000e+00
4.325057e-02 -7.212546e-14 0.000000e+00
3.871769e-02 5.474493e-14 0.000000e+00
3.627448e-02 -2.625710e-14 0.000000e+00
3.555926e-02 -4.256315e-14 0.000000e+00
3.581230e-02 1.731123e-14 0.000000e+00
3.598810e-02 -1.250810e-14 0.000000e+00
3.525577e-02 2.540122e-14 0.000000e+00
3.312472e-02 2.898643e-14 0.000000e+00
2.998908e-02 3.075457e-14 0.000000e+00
2.655906e-02 6.466658e-14 0.000000e+00
2.359691e-02 3.725168e-14 0.000000e+00
2.138957e-02 5.989024e-14 0.000000e+00
2.002253e-02 3.046786e-14 0.000000e+00
1.922872e-02 2.621454e-14 0.000000e+00
1.905175e-02 6.046271e-14 0.000000e+00
1.947361e-02 -2.608225e-14 0.000000e+00
2.085296e-02 7.701032e-14 0.000000e+00
2.314244e-02 1.256747e-15 0.000000e+00
2.660768e-02 2.208259e-14 0.000000e+00
3.097888e-02 3.115450e-16 0.000000e+00
3.612906e-02 1.032631e-14 0.000000e+00
4.150801e-02 -1.720095e-14 0.000000e+00
4.636671e-02 3.082806e-14 0.000000e+00
5.049569e-02 -1.091244e-14 0.000000e+00
5.324870e-02 3.881499e-14 0.000000e+00
5.404588e-02 -2.579998e-14 0.000000e+00
5.327933e-02 3.371404e-14 0.000000e+00
4.590732e-02 -4.513050e-14 0.000000e+00
3.648496e-02 6.179685e-14 0.000000e+00
0.000000e+00 -5.419315e-14 0.000000e+00
0.000000e+00 -8.624182e-14 0.000000e+00
3.057987e-02 -2.511221e-15 0.000000e+00
5.007807e-02 -1.548405e-17 0.000000e+00
6.373038e-02 -2.200537e-14 0.000000e+00
7.192405e-02 -2.174133e-14 0.000000e+00
7.528326e-02 -1.972198e-15 0.000000e+00
7.404734e-02 -2.143135e-14 0.000000e+00
6.977908e-02 -4.909493e-15 0.000000e+00
6.341712e-02 1.183860e-15 0.000000e+00
5.639801e-02 -2.540619e-14 0.000000e+00
4.940733e-02 2.576110e-14 0.000000e+00
4.325057e-02 -6.800949e-14 0.000000e+00
3.871769e-02 5.283825e-14 0.000000e+00
3.627448e-02 -3.053671e-14 0.000000e+00
3.555926e-02 -3.968570e-14 0.000000e+00
3.581230e-02 5.380340e-15 0.000000e+00
3.598810e-02 -1.401890e-14 0.000000e+00
3.525577e-02 5.376664e-15 0.000000e+00
3.312472e-02 2.193665e-14 0.000000e+00
2.998908e-02 1.392800e-14 0.000000e+00
2.655906e-02 5.315833e-14 0.000000e+00
2.359691e-02 2.385351e-14 0.000000e+00
2.138957e-02 6.028210e-14 0.000000e+00
2.002253e-02 1.443040e-14 0.000000e+00
1.922872e-02 2.705877e-14 0.000000e+00
1.905175e-02 5.285736e-14 0.000000e+00
1.947361e-02 -1.088478e-14 0.000000e+00
2.085296e-02 6.603053e-14 0.000000e+00
2.314244e-02 1.222460e-15 0.000000e+00
2.660768e-02 1.985354e-14 0.000000e+00
3.097888e-02 -1.667181e-15 0.000000e+00
3.612906e-02 1.423852e-14 0.000000e+00
4.150801e-02 -1.514732e-14 0.000000e+00
4.636671e-02 2.153715e-14 0.000000e+00
5.049569e-02 -1.010267e-15 0.000000e+00
5.324870e-02 1.885409e-14 0.000000e+00
5.404588e-02 -1.067098e-14 0.000000e+00
5.327933e-02 7.945345e-15 0.000000e+00
4.590732e-02 -1.837690e-14 0.000000e+00
3.648496e-02 2.382199e-14 0.000000e+00
0.000000e+00 -6.342567e-14 0.000000e+00
0.000000e+00 -9.865282e-14 0.000000e+00
3.057987e-02 -4.436691e-14 0.000000e+00
5.007807e-02 -2.216631e-14 0.000000e+00
6.373038e-02 -2.202449e-14 0.000000e+00
7.192405e-02 -2.890067e-14 0.000000e+00
7.528326e-02 -1.380182e-14 0.000000e+00
7.404734e-02 -2.827512e-14 0.000000e+00
6.977908e-02 -1.482056e-15 0.000000e+00
6.341712e-02 -4.607026e-15 0.000000e+00
5.639801e-02 -1.549931e-14 0.000000e+00
4.940733e-02 3.800817e-15 0.000000e+00
4.325057e-02 -4.555309e-14 0.000000e+00
3.871769e-02 2.424704e-14 0.000000e+00
3.627448e-02 -4.114342e-14 0.000000e+00
3.555926e-02 -4.122074e-14 0.000000e+00
3.581230e-02 -8.481627e-15 0.000000e+00
3.598810e-02 -3.717944e-14 0.000000e+00
3.525577e-02 -1.813822e-15 0.000000e+00
3.312472e-02 -5.656677e-15 0.000000e+00
2.998908e-02 -5.452070e-15 0.000000e+00
2.655906e-02 1.955550e-14 0.000000e+00
2.359691e-02 1.479872e-14 0.000000e+00
2.138957e-02 1.689208e-14 0.000000e+00
2.002253e-02 2.340699e-15 0.000000e+00
1.922872e-02 3.538123e-15 0.000000e+00
1.905175e-02 3.024683e-14 0.000000e+00
1.947361e-02 -5.080616e-14 0.000000e+00
2.085296e-02 4.208145e-14 0.000000e+00
2.314244e-02 -2.281850e-14 0.000000e+00
2.660768e-02 1.755475e-15 0.000000e+00
3.097888e-02 -2.124735e-14 0.000000e+00
3.612906e-02 -6.399496e-16 0.000000e+00
4.150801e-02 -4.422731e-14 0.000000e+00
4.636671e-02 3.195354e-14 0.000000e+00
5.049569e-02 -3.354647e-14 0.000000e+00
5.324870e-02 3.900256e-14 0.000000e+00
5.404588e-02 -4.522532e-14 0.000000e+00
5.327933e-02 4.164332e-14 0.000000e+00
4.590732e-02 -7.764094e-14 0.000000e+00
3.648496e-02 7.020477e-14 0.000000e+00
0.000000e+00 4.308953e-14 0.000000e+00
0.000000e+00 0.000000e+00 0.000000e+00
3.057987e-02 0.000000e+00 0.000000e+00
5.007807e-02 0.000000e+00 0.000000e+00
6.373038e-02 0.000000e+00 0.000000e+00
7.192405e-02 0.000000e+00 0.000000e+00
7.528326e-02 0.000000e+00 0.000000e+00
7.404734e-02 0.000000e+00 0.000000e+00
6.977908e-02 0.000000e+00 0.000000e+00
6.341712e-02 0.000000e+00 0.000000e+00
5.639801e-02 0.000000e+00 0.000000e+00
4.940733e-02 0.000000e+00 0.000000e+00
4.325057e-02 0.000000e+00 0.000000e+00
3.871769e-02 0.000000e+00 0.000000e+00
3.627448e-02 0.000000e+00 0.000000e+00
3.555926e-02 0.000000e+00 0.000000e+00
3.581230e-02 0.000000e+00 0.000000e+00
3.598810e-02 0.000000e+00 0.000000e+00
3.525577e-02 0.000000e+00 0.000000e+00
3.312472e-02 0.000000e+00 0.000000e+00
2.998908e-02 0.000000e+00 0.000000e+00
2.655906e-02 0.000000e+00 0.000000e+00
2.359691e-02 0.000000e+00 0.000000e+00
2.138957e-02 0.000000e+00 0.000000e+00
2.002253e-02 0.000000e+00 0.000000e+00
1.922872e-02 0.000000e+00 0.000000e+00
1.905175e-02 0.000000e+00 0.000000e+00
1.947361e-02 0.000000e+00 0.000000e+00
2.085296e-02 0.000000e+00 0.000000e+00
2.314244e-02 0.000000e+00 0.000000e+00
2.660768e-02 0.000000e+00 0.000000e+00
3.097888e-02 0.000000e+00 0.000000e+00
3.612906e-02 0.000000e+00 0.000000e+00
4.150801e-02 0.000000e+00 0.000000e+00
4.636671e-02 0.000000e+00 0.000000e+00
5.049569e-02 0.000000e+00 0.000000e+00
5.324870e-02 0.000000e+00 0.000000e+00
5.404588e-02 0.000000e+00 0.000000e+00
5.327933e-02 0.000000e+00 0.000000e+00
4.590732e-02 0.000000e+00 0.000000e+00
3.648496e-02 0.000000e+00 0.000000e+00
0.000000e+00 0.000000e+00 0.000000e+00
0.000000e+00 0.000000e+00 -2.942275e-02
1.468551e-02 0.000000e+00 -2.431641e-02
2.900431e-02 0.000000e+00 -1.712747e-02
3.860328e-02 0.000000e+00 -1.207767e-02
4.284872e-02 0.000000e+00 -6.777550e-03
4.218190e-02 0.000000e+00 -2.178124e-03
3.779422e-02 0.000000e+00 1.644635e-03
2.973908e-02 0.000000e+00 4.400051e-03
1.916867e-02 0.000000e+00 5.999739e-03
7.129520e-03 0.000000e+00 6.339148e-03
-4.469372e-03 0.000000e+00 5.693572e-03
-1.439627e-02 0.000000e+00 4.129649e-03
-2.169958e-02 0.000000e+00 1.851954e-03
-2.600660e-02 0.000000e+00 -4.927639e-04
-2.749383e-02 0.000000e+00 -2.261276e-03
-2.693200e-02 0.000000e+00 -3.079872e-03
-2.536558e-02 0.000000e+00 -2.849869e-03
-2.403379e-02 0.000000e+00 -1.725986e-03
-2.394642e-02 0.000000e+00 -3.326568e-04
-2.547849e-02 0.000000e+00 6.667288e-04
-2.847267e-02 0.000000e+00 9.737891e-04
-3.222404e-02 0.000000e+00 6.280105e-04
-3.581974e-02 0.000000e+00 -1.460648e-04
-3.848459e-02 0.000000e+00 -9.979597e-04
-3.992060e-02 0.000000e+00 -1.832963e-03
-3.995728e-02 0.000000e+00 -2.682296e-03
-3.862190e-02 0.000000e+00 -3.690595e-03
-3.583502e-02 0.000000e+00 -4.777487e-03
-3.175359e-02 0.000000e+00 -5.936563e-03
-2.630698e-02 0.000000e+00 -7.070048e-03
-1.979006e-02 0.000000e+00 -8.001641e-03
-1.222190e-02 0.000000e+00 -8.648971e-03
-4.270815e-03 0.000000e+00 -8.597362e-03
3.681347e-03 0.000000e+00 -7.965808e-03
1.048424e-02 0.000000e+00 -6.914466e-03
1.565025e-02 0.000000e+00 -4.769781e-03
1.833741e-02 0.000000e+00 -3.656657e-03
1.922050e-02 0.000000e+00 1.034726e-03
1.684397e-02 0.000000e+00 2.503935e-03
1.196097e-02 0.000000e+00 1.501321e-02
0.000000e+00 0.000000e+00 3.125645e-02
0.000000e+00 1.305605e-14 -2.942275e-02
1.468551e-02 -1.089176e-14 -2.431641e-02
2.900431e-02 -1.105090e-14 -1.712747e-02
3.860328e-02 6.816790e-15 -1.207767e-02
4.284872e-02 -1.356394e-14 -6.777550e-03
4.218190e-02 1.897351e-15 -2.178124e-03
3.779422e-02 -1.783337e-14 1.644635e-03
2.973908e-02 -8.090329e-15 4.400051e-03
1.916867e-02 -3.349097e-14 5.999739e-03
7.129520e-03 -1.442303e-14 6.339148e-03
-4.469372e-03 -2.429559e-14 5.693572e-03
-1.439627e-02 -1.202636e-14 4.129649e-03
-2.169958e-02 5.778369e-15 1.851954e-03
-2.600660e-02 -2.611907e-14 -4.927639e-04
-2.749383e-02 4.776822e-14 -2.261276e-03
-2.693200e-02 -4.438736e-16 -3.079872e-03
-2.536558e-02 1.161476e-14 -2.849869e-03
-2.403379e-02 5.144916e-14 -1.725986e-03
-2.394642e-02 3.703611e-14 -3.326568e-04
-2.547849e-02 7.190996e-14 6.667288e-04
-2.847267e-02 1.032578e-13 9.737891e-04
-3.222404e-02 7.739167e-14 6.280105e-04
-3.581974e-02 1.045797e-13 -1.460648e-04
-3.848459e-02 5.366198e-14 -9.979597e-04
-3.992060e-02 9.645350e-14 -1.832963e-03
-3.995728e-02 4.191716e-14 -2.682296e-03
-3.862190e-02 5.200105e-14 -3.690595e-03
-3.583502e-02 5.135569e-14 -4.777487e-03
-3.175359e-02 2.080481e-14 -5.936563e-03
-2.630698e-02 3.316846e-14 -7.070048e-03
-1.979006e-02 4.974761e-15 -8.001641e-03
-1.222190e-02 2.994704e-15 -8.648971e-03
-4.270815e-03 -8.027096e-15 -8.597362e-03
3.681347e-03 4.425738e-14 -7.965808e-03
1.048424e-02 -2.717241e-14 -6.914466e-03
1.565025e-02 4.006559e-14 -4.769781e-03
1.833741e-02 -3.976110e-14 -3.656657e-03
1.922050e-02 4.012238e-14 1.034726e-03
1.684397e-02 -7.715372e-14 2.503935e-03
1.196097e-02 6.612436e-14 1.501321e-02
0.000000e+00 -4.529502e-15 3.125645e-02
0.000000e+00 -4.487783e-15 -2.942275e-02
1.468551e-02 -3.783973e-14 -2.431641e-02
2.900431e-02 -3.014275e-14 -1.712747e-02
3.860328e-02 -6.385041e-15 -1.207767e-02
4.284872e-02 -3.473154e-14 -6.777550e-03
4.218190e-02 -5.261089e-15 -2.178124e-03
3.779422e-02 -2.965710e-14 1.644635e-03
2.973908e-02 -4.790080e-15 4.400051e-03
1.916867e-02 -3.365982e-14 5.999739e-03
7.129520e-03 -1.056910e-14 6.339148e-03
-4.469372e-03 -2.007484e-14 5.693572e-03
-1.439627e-02 -1.054494e-14 4.129649e-03
-2.169958e-02 2.465341e-14 1.851954e-03
-2.600660e-02 -3.616661e-14 -4.927639e-04
-2.749383e-02 7.176067e-14 -2.261276e-03
-2.693200e-02 9.099257e-15 -3.079872e-03
-2.536558e-02 2.242232e-14 -2.849869e-03
-2.403379e-02 6.156647e-14 -1.725986e-03
-2.394642e-02 6.220164e-14 -3.326568e-04
-2.547849e-02 8.286350e-14 6.667288e-04
-2.847267e-02 1.409179e-13 9.737891e-04
-3.222404e-02 9.745861e-14 6.280105e-04
-3.581974e-02 1.526541e-13 -1.460648e-04
-3.848459e-02 6.714743e-14 -9.979597e-04
-3.992060e-02 1.334707e-13 -1.832963e-03
-3.995728e-02 6.387570e-14 -2.682296e-03
-3.862190e-02 8.638385e-14 -3.690595e-03
-3.583502e-02 6.055493e-14 -4.777487e-03
-3.175359e-02 3.895997e-14 -5.936563e-03
-2.630698e-02 4.638189e-14 -7.070048e-03
-1.979006e-02 1.555080e-14 -8.001641e-03
-1.222190e-02 2.021719e-14 -8.648971e-03
-4.270815e-03 -7.562064e-15 -8.597362e-03
3.681347e-03 3.856356e-14 -7.965808e-03
1.048424e-02 -1.880292e-14 -6.914466e-03
1.565025e-02 1.413374e-14 -4.769781e-03
1.833741e-02 -1.155390e-14 -3.656657e-03
1.922050e-02 9.629898e-15 1.034726e-03
1.684397e-02 -4.041042e-14 2.503935e-03
1.196097e-02 3.139590e-14 1.501321e-02
0.000000e+00 2.238586e-14 3.125645e-02
0.000000e+00 1.183907e-14 -2.942275e-02
1.468551e-02 -3.483618e-14 -2.431641e-02
2.900431e-02 -3.792201e-14 -1.712747e-02
3.860328e-02 -1.434412e-14 -1.207767e-02
4.284872e-02 -4.205136e-14 -6.777550e-03
4.218190e-02 -1.055032e-14 -2.178124e-03
3.779422e-02 -3.574625e-14 1.644635e-03
2.973908e-02 -4.166291e-15 4.400051e-03
1.916867e-02 -3.091466e-14 5.999739e-03
7.129520e-03 -4.102185e-15 6.339148e-03
-4.469372e-03 -5.383030e-15 5.693572e-03
-1.439627e-02 -7.003072e-15 4.129649e-03
-2.169958e-02 2.511369e-14 1.851954e-03
-2.600660e-02 -3.127409e-14 -4.927639e-04
-2.749383e-02 8.071148e-14 -2.261276e-03
-2.693200e-02 1.424354e-14 -3.079872e-03
-2.536558e-02 3.363924e-14 -2.849869e-03
-2.403379e-02 7.144639e-14 -1.725986e-03
-2.394642e-02 5.949571e-14 -3.326568e-04
-2.547849e-02 8.622321e-14 6.667288e-04
-2.847267e-02 1.351606e-13 9.737891e-04
-3.222404e-02 9.349895e-14 6.280105e-04
-3.581974e-02 1.538768e-13 -1.460648e-04
-3.848459e-02 7.047701e-14 -9.979597e-04
-3.992060e-02 1.363717e-13 -1.832963e-03
-3.995728e-02 6.782202e-14 -2.682296e-03
-3.862190e-02 8.545087e-14 -3.690595e-03
-3.583502e-02 7.424777e-14 -4.777487e-03
-3.175359e-02 3.194272e-14 -5.936563e-03
-2.630698e-02 5.788330e-14 -7.070048e-03
-1.979006e-02 6.779120e-15 -8.001641e-03
-1.222190e-02 2.960656e-14 -8.648971e-03
-4.270815e-03 -9.835699e-15 -8.597362e-03
3.681347e-03 5.831927e-14 -7.965808e-03
1.048424e-02 -2.447696e-14 -6.914466e-03
1.565025e-02 3.240309e-14 -4.769781e-03
1.833741e-02 -4.206798e-14 -3.656657e-03
1.922050e-02 2.750505e-14 1.034726e-03
1.684397e-02 -8.709123e-14 2.503935e-03
1.196097e-02 6.981428e-14 1.501321e-02
0.000000e+00 1.635621e-15 3.125645e-02
0.000000e+00 -4.089802e-15 -2.942275e-02
1.468551e-02 -3.980888e-14 -2.431641e-02
2.900431e-02 -3.589855e-14 -1.712747e-02
3.860328e-02 -1.287022e-14 -1.207767e-02
4.284872e-02 -2.787436e-14 -6.777550e-03
4.218190e-02 -3.365984e-15 -2.178124e-03
3.779422e-02 -2.822857e-14 1.644635e-03
2.973908e-02 -5.830812e-15 4.400051e-03
1.916867e-02 -2.211157e-14 5.999739e-03
7.129520e-03 -1.645183e-15 6.339148e-03
-4.469372e-03 -8.179255e-15 5.693572e-03
-1.439627e-02 -2.287420e-15 4.129649e-03
-2.169958e-02 2.122463e-14 1.851954e-03
-2.600660e-02 -3.239414e-14 -4.927639e-04
-2.749383e-02 7.535494e-14 -2.261276e-03
-2.693200e-02 8.171407e-15 -3.079872e-03
-2.536558e-02 2.540152e-14 -2.849869e-03
-2.403379e-02 5.745607e-14 -1.725986e-03
-2.394642e-02 5.255723e-14 -3.326568e-04
-2.547849e-02 6.942359e-14 6.667288e-04
-2.847267e-02 1.219724e-13 9.737891e-04
-3.222404e-02 7.974661e-14 6.280105e-04
-3.581974e-02 1.366489e-13 -1.460648e-04
-3.848459e-02 5.584249e-14 -9.979597e-04
-3.992060e-02 1.267473e-13 -1.832963e-03
-3.995728e-02 6.488556e-14 -2.682296e-03
-3.862190e-02 8.402308e-14 -3.690595e-03
-3.583502e-02 6.907613e-14 -4.777487e-03
-3.175359e-02 3.394022e-14 -5.936563e-03
-2.630698e-02 5.315030e-14 -7.070048e-03
-1.979006e-02 1.620666e-14 -8.001641e-03
-1.222190e-02 3.408184e-14 -8.648971e-03
-4.270815e-03 -8.671235e-15 -8.597362e-03
3.681347e-03 4.487357e-14 -7.965808e-03
1.048424e-02 -2.339591e-14 -6.914466e-03
1.565025e-02 1.361388e-14 -4.769781e-03
1.833741e-02 -1.896040e-14 -3.656657e-03
1.922050e-02 8.776045e-15 1.034726e-03
1.684397e-02 -4.180252e-14 2.503935e-03
1.196097e-02 3.011461e-14 1.501321e-02
0.000000e+00 7.513276e-15 3.125645e-02
0.000000e+00 -3.146682e-14 -2.942275e-02
1.468551e-02 -4.984679e-14 -2.431641e-02
2.900431e-02 -2.462711e-14 -1.712747e-02
3.860328e-02 -2.709487e-15 -1.207767e-02
4.284872e-02 -1.631574e-14 -6.777550e-03
4.218190e-02 7.381199e-15 -2.178124e-03
3.779422e-02 -1.330085e-14 1.644635e-03
2.973908e-02 -1.699106e-15 4.400051e-03