# vtk DataFile Version 3.0
vtk output
ASCII
DATASET UNSTRUCTURED_GRID
POINTS 11767 float
0.000000e+00 0.000000e+00 0.000000e+00
1.460000e-02 0.000000e+00 0.000000e+00
2.920000e-02 0.000000e+00 0.000000e+00
4.380000e-02 0.000000e+00 0.000000e+00
5.840000e-02 0.000000e+00 0.000000e+00
7.300000e-02 0.000000e+00 0.000000e+00
8.760000e-02 0.000000e+00 0.000000e+00
1.022000e-01 0.000000e+00 0.000000e+00
1.168000e-01 0.000000e+00 0.000000e+00
1.314000e-01 0.000000e+00 0.000000e+00
1.460000e-01 0.000000e+00 0.000000e+00
1.606000e-01 0.000000e+00 0.000000e+00
1.752000e-01 0.000000e+00 0.000000e+00
1.898000e-01 0.000000e+00 0.000000e+00
2.044000e-01 0.000000e+00 0.000000e+00
2.190000e-01 0.000000e+00 0.000000e+00
2.336000e-01 0.000000e+00 0.000000e+00
2.482000e-01 0.000000e+00 0.000000e+00
2.628000e-01 0.000000e+00 0.000000e+00
2.774000e-01 0.000000e+00 0.000000e+00
2.920000e-01 0.000000e+00 0.000000e+00
3.066000e-01 0.000000e+00 0.000000e+00
3.212000e-01 0.000000e+00 0.000000e+00
3.358000e-01 0.000000e+00 0.000000e+00
3.504000e-01 0.000000e+00 0.000000e+00
3.650000e-01 0.000000e+00 0.000000e+00
3.796000e-01 0.000000e+00 0.000000e+00
3.942000e-01 0.000000e+00 0.000000e+00
4.088000e-01 0.000000e+00 0.000000e+00
4.234000e-01 0.000000e+00 0.000000e+00
4.380000e-01 0.000000e+00 0.000000e+00
4.526000e-01 0.000000e+00 0.000000e+00
4.672000e-01 0.000000e+00 0.000000e+00
4.818000e-01 0.000000e+00 0.000000e+00
4.964000e-01 0.000000e+00 0.000000e+00
5.110000e-01 0.000000e+00 0.000000e+00
5.256000e-01 0.000000e+00 0.000000e+00
5.402000e-01 0.000000e+00 0.000000e+00
5.548000e-01 0.000000e+00 0.000000e+00
5.694000e-01 0.000000e+00 0.000000e+00
5.840000e-01 0.000000e+00 0.000000e+00
0.000000e+00 1.460000e-02 0.000000e+00
1.460000e-02 1.460000e-02 0.000000e+00
2.920000e-02 1.460000e-02 0.000000e+00
4.380000e-02 1.460000e-02 0.000000e+00
5.840000e-02 1.460000e-02 0.000000e+00
7.300000e-02 1.460000e-02 0.000000e+00
8.760000e-02 1.460000e-02 0.000000e+00
1.022000e-01 1.460000e-02 0.000000e+00
1.168000e-01 1.460000e-02 0.000000e+00
1.314000e-01 1.460000e-02 0.000000e+00
1.460000e-01 1.460000e-02 0.000000e+00
1.606000e-01 1.460000e-02 0.000000e+00
1.752000e-01 1.460000e-02 0.000000e+00
1.898000e-01 1.460000e-02 0.000000e+00
2.044000e-01 1.460000e-02 0.000000e+00
2.190000e-01 1.460000e-02 0.000000e+00
2.336000e-01 1.460000e-02 0.000000e+00
2.482000e-01 1.460000e-02 0.000000e+00
2.628000e-01 1.460000e-02 0.000000e+00
2.774000e-01 1.460000e-02 0.000000e+00
2.920000e-01 1.460000e-02 0.000000e+00
3.066000e-01 1.460000e-02 0.000000e+00
3.212000e-01 1.460000e-02 0.000000e+00
3.358000e-01 1.460000e-02 0.000000e+00
3.504000e-01 1.460000e-02 0.000000e+00
3.650000e-01 1.460000e-02 0.000000e+00
3.796000e-01 1.460000e-02 0.000000e+00
3.942000e-01 1.460000e-02 0.000000e+00
4.088000e-01 1.460000e-02 0.000000e+00
4.234000e-01 1.460000e-02 0.000000e+00
4.380000e-01 1.460000e-02 0.000000e+00
4.526000e-01 1.460000e-02 0.000000e+00
4.672000e-01 1.460000e-02 0.000000e+00
4.818000e-01 1.460000e-02 0.000000e+00
4.964000e-01 1.460000e-02 0.000000e+00
5.110000e-01 1.460000e-02 0.000000e+00
5.256000e-01 1.460000e-02 0.000000e+00
5.402000e-01 1.460000e-02 0.000000e+00
5.548000e-01 1.460000e-02 0.000000e+00
5.694000e-01 1.460000e-02 0.000000e+00
5.840000e-01 1.460000e-02 0.000000e+00
0.000000e+00 2.920000e-02 0.000000e+00
1.460000e-02 2.920000e-02 0.000000e+00
2.920000e-02 2.920000e-02 0.000000e+00
4.380000e-02 2.920000e-02 0.000000e+00
5.840000e-02 2.920000e-02 0.000000e+00
7.300000e-02 2.920000e-02 0.000000e+00
8.760000e-02 2.920000e-02 0.000000e+00
1.022000e-01 2.920000e-02 0.000000e+00
1.168000e-01 2.920000e-02 0.000000e+00
1.314000e-01 2.920000e-02 0.000000e+00
1.460000e-01 2.920000e-02 0.000000e+00
1.606000e-01 2.920000e-02 0.000000e+00
1.752000e-01 2.920000e-02 0.000000e+00
1.898000e-01 2.920000e-02 0.000000e+00
2.044000e-01 2.920000e-02 0.000000e+00
2.190000e-01 2.920000e-02 0.000000e+00
2.336000e-01 2.920000e-02 0.000000e+00
2.482000e-01 2.920000e-02 0.000000e+00
2.628000e-01 2.920000e-02 0.000000e+00
2.774000e-01 2.920000e-02 0.000000e+00
2.920000e-01 2.920000e-02 0.000000e+00
3.066000e-01 2.920000e-02 0.000000e+00
3.212000e-01 2.920000e-02 0.000000e+00
3.358000e-01 2.920000e-02 0.000000e+00
3.504000e-01 2.920000e-02 0.000000e+00
3.650000e-01 2.920000e-02 0.000000e+00
3.796000e-01 2.920000e-02 0.000000e+00
3.942000e-01 2.920000e-02 0.000000e+00
4.088000e-01 2.920000e-02 0.000000e+00
4.234000e-01 2.920000e-02 0.000000e+00
4.380000e-01 2.920000e-02 0.000000e+00
4.526000e-01 2.920000e-02 0.000000e+00
4.672000e-01 2.920000e-02 0.000000e+00
4.818000e-01 2.920000e-02 0.000000e+00
4.964000e-01 2.920000e-02 0.000000e+00
5.110000e-01 2.920000e-02 0.000000e+00
5.256000e-01 2.920000e-02 0.000000e+00
5.402000e-01 2.920000e-02 0.000000e+00
5.548000e-01 2.920000e-02 0.000000e+00
5.694000e-01 2.920000e-02 0.000000e+00
5.840000e-01 2.920000e-02 0.000000e+00
0.000000e+00 4.380000e-02 0.000000e+00
1.460000e-02 4.380000e-02 0.000000e+00
2.920000e-02 4.380000e-02 0.000000e+00
4.380000e-02 4.380000e-02 0.000000e+00
5.840000e-02 4.380000e-02 0.000000e+00
7.300000e-02 4.380000e-02 0.000000e+00
8.760000e-02 4.380000e-02 0.000000e+00
1.022000e-01 4.380000e-02 0.000000e+00
1.168000e-01 4.380000e-02 0.000000e+00
1.314000e-01 4.380000e-02 0.000000e+00
1.460000e-01 4.380000e-02 0.000000e+00
1.606000e-01 4.380000e-02 0.000000e+00
1.752000e-01 4.380000e-02 0.000000e+00
1.898000e-01 4.380000e-02 0.000000e+00
2.044000e-01 4.380000e-02 0.000000e+00
2.190000e-01 4.380000e-02 0.000000e+00
2.336000e-01 4.380000e-02 0.000000e+00
2.482000e-01 4.380000e-02 0.000000e+00
2.628000e-01 4.380000e-02 0.000000e+00
2.774000e-01 4.380000e-02 0.000000e+00
2.920000e-01 4.380000e-02 0.000000e+00
3.066000e-01 4.380000e-02 0.000000e+00
3.212000e-01 4.380000e-02 0.000000e+00
3.358000e-01 4.380000e-02 0.000000e+00
3.504000e-01 4.380000e-02 0.000000e+00
3.650000e-01 4.380000e-02 0.000000e+00
3.796000e-01 4.380000e-02 0.000000e+00
3.942000e-01 4.380000e-02 0.000000e+00
4.088000e-01 4.380000e-02 0.000000e+00
4.234000e-01 4.380000e-02 0.000000e+00
4.380000e-01 4.380000e-02 0.000000e+00
4.526000e-01 4.380000e-02 0.000000e+00
4.672000e-01 4.380000e-02 0.000000e+00
4.818000e-01 4.380000e-02 0.000000e+00
4.964000e-01 4.380000e-02 0.000000e+00
5.110000e-01 4.380000e-02 0.000000e+00
5.256000e-01 4.380000e-02 0.000000e+00
5.402000e-01 4.380000e-02 0.000000e+00
5.548000e-01 4.380000e-02 0.000000e+00
5.694000e-01 4.380000e-02 0.000000e+00
5.840000e-01 4.380000e-02 0.000000e+00
0.000000e+00 5.840000e-02 0.000000e+00
1.460000e-02 5.840000e-02 0.000000e+00
2.920000e-02 5.840000e-02 0.000000e+00
4.380000e-02 5.840000e-02 0.000000e+00
5.840000e-02 5.840000e-02 0.000000e+00
7.300000e-02 5.840000e-02 0.000000e+00
8.760000e-02 5.840000e-02 0.000000e+00
1.022000e-01 5.840000e-02 0.000000e+00
1.168000e-01 5.840000e-02 0.000000e+00
1.314000e-01 5.840000e-02 0.000000e+00
1.460000e-01 5.840000e-02 0.000000e+00
1.606000e-01 5.840000e-02 0.000000e+00
1.752000e-01 5.840000e-02 0.000000e+00
1.898000e-01 5.840000e-02 0.000000e+00
2.044000e-01 5.840000e-02 0.000000e+00
2.190000e-01 5.840000e-02 0.000000e+00
2.336000e-01 5.840000e-02 0.000000e+00
2.482000e-01 5.840000e-02 0.000000e+00
2.628000e-01 5.840000e-02 0.000000e+00
2.774000e-01 5.840000e-02 0.000000e+00
2.920000e-01 5.840000e-02 0.000000e+00
3.066000e-01 5.840000e-02 0.000000e+00
3.212000e-01 5.840000e-02 0.000000e+00
3.358000e-01 5.840000e-02 0.000000e+00
3.504000e-01 5.840000e-02 0.000000e+00
3.650000e-01 5.840000e-02 0.000000e+00
3.796000e-01 5.840000e-02 0.000000e+00
3.942000e-01 5.840000e-02 0.000000e+00
4.088000e-01 5.840000e-02 0.000000e+00
4.234000e-01 5.840000e-02 0.000000e+00
4.380000e-01 5.840000e-02 0.000000e+00
4.526000e-01 5.840000e-02 0.000000e+00
4.672000e-01 5.840000e-02 0.000000e+00
4.818000e-01 5.840000e-02 0.000000e+00
4.964000e-01 5.840000e-02 0.000000e+00
5.110000e-01 5.840000e-02 0.000000e+00
5.256000e-01 5.840000e-02 0.000000e+00
5.402000e-01 5.840000e-02 0.000000e+00
5.548000e-01 5.840000e-02 0.000000e+00
5.694000e-01 5.840000e-02 0.000000e+00
5.840000e-01 5.840000e-02 0.000000e+00
0.000000e+00 7.300000e-02 0.000000e+00
1.460000e-02 7.300000e-02 0.000000e+00
2.920000e-02 7.300000e-02 0.000000e+00
4.380000e-02 7.300000e-02 0.000000e+00
5.840000e-02 7.300000e-02 0.000000e+00
7.300000e-02 7.300000e-02 0.000000e+00
8.760000e-02 7.300000e-02 0.000000e+00
1.022000e-01 7.300000e-02 0.000000e+00
1.168000e-01 7.300000e-02 0.000000e+00
1.314000e-01 7.300000e-02 0.000000e+00
1.460000e-01 7.300000e-02 0.000000e+00
1.606000e-01 7.300000e-02 0.000000e+00
1.752000e-01 7.300000e-02 0.000000e+00
1.898000e-01 7.300000e-02 0.000000e+00
2.044000e-01 7.300000e-02 0.000000e+00
2.190000e-01 7.300000e-02 0.000000e+00
2.336000e-01 7.300000e-02 0.000000e+00
2.482000e-01 7.300000e-02 0.000000e+00
2.628000e-01 7.300000e-02 0.000000e+00
2.774000e-01 7.300000e-02 0.000000e+00
2.920000e-01 7.300000e-02 0.000000e+00
3.066000e-01 7.300000e-02 0.000000e+00
3.212000e-01 7.300000e-02 0.000000e+00
3.358000e-01 7.300000e-02 0.000000e+00
3.504000e-01 7.300000e-02 0.000000e+00
3.650000e-01 7.300000e-02 0.000000e+00
3.796000e-01 7.300000e-02 0.000000e+00
3.942000e-01 7.300000e-02 0.000000e+00
4.088000e-01 7.300000e-02 0.000000e+00
4.234000e-01 7.300000e-02 0.000000e+00
4.380000e-01 7.300000e-02 0.000000e+00
4.526000e-01 7.300000e-02 0.000000e+00
4.672000e-01 7.300000e-02 0.000000e+00
4.818000e-01 7.300000e-02 0.000000e+00
4.964000e-01 7.300000e-02 0.000000e+00
5.110000e-01 7.300000e-02 0.000000e+00
5.256000e-01 7.300000e-02 0.000000e+00
5.402000e-01 7.300000e-02 0.000000e+00
5.548000e-01 7.300000e-02 0.000000e+00
5.694000e-01 7.300000e-02 0.000000e+00
5.840000e-01 7.300000e-02 0.000000e+00
0.000000e+00 8.760000e-02 0.000000e+00
1.460000e-02 8.760000e-02 0.000000e+00
2.920000e-02 8.760000e-02 0.000000e+00
4.380000e-02 8.760000e-02 0.000000e+00
5.840000e-02 8.760000e-02 0.000000e+00
7.300000e-02 8.760000e-02 0.000000e+00
8.760000e-02 8.760000e-02 0.000000e+00
1.022000e-01 8.760000e-02 0.000000e+00
[...]
POINT_DATA 11767
VECTORS Velocity float
0.000000e+00 0.000000e+00 0.000000e+00
1.156251e-02 0.000000e+00 0.000000e+00
1.707226e-02 0.000000e+00 0.000000e+00
2.011923e-02 0.000000e+00 0.000000e+00
2.156767e-02 0.000000e+00 0.000000e+00
2.203035e-02 0.000000e+00 0.000000e+00
2.144914e-02 0.000000e+00 0.000000e+00
1.945336e-02 0.000000e+00 0.000000e+00
1.597246e-02 0.000000e+00 0.000000e+00
1.143310e-02 0.000000e+00 0.000000e+00
6.598729e-03 0.000000e+00 0.000000e+00
2.442773e-03 0.000000e+00 0.000000e+00
-6.904158e-05 0.000000e+00 0.000000e+00
-1.863238e-04 0.000000e+00 0.000000e+00
2.683961e-03 0.000000e+00 0.000000e+00
8.905033e-03 0.000000e+00 0.000000e+00
1.842716e-02 0.000000e+00 0.000000e+00
3.058371e-02 0.000000e+00 0.000000e+00
4.416778e-02 0.000000e+00 0.000000e+00
5.783334e-02 0.000000e+00 0.000000e+00
7.069805e-02 0.000000e+00 0.000000e+00
8.243498e-02 0.000000e+00 0.000000e+00
9.280208e-02 0.000000e+00 0.000000e+00
1.016263e-01 0.000000e+00 0.000000e+00
1.089189e-01 0.000000e+00 0.000000e+00
1.148280e-01 0.000000e+00 0.000000e+00
1.195864e-01 0.000000e+00 0.000000e+00
1.234189e-01 0.000000e+00 0.000000e+00
1.264863e-01 0.000000e+00 0.000000e+00
1.287636e-01 0.000000e+00 0.000000e+00
1.301927e-01 0.000000e+00 0.000000e+00
1.304538e-01 0.000000e+00 0.000000e+00
1.294469e-01 0.000000e+00 0.000000e+00
1.267192e-01 0.000000e+00 0.000000e+00
1.221278e-01 0.000000e+00 0.000000e+00
1.153886e-01 0.000000e+00 0.000000e+00
1.055236e-01 0.000000e+00 0.000000e+00
9.382251e-02 0.000000e+00 0.000000e+00
7.474056e-02 0.000000e+00 0.000000e+00
5.331877e-02 0.000000e+00 0.000000e+00
0.000000e+00 0.000000e+00 0.000000e+00
0.000000e+00 -4.865196e-14 0.000000e+00
1.156251e-02 -5.197984e-14 0.000000e+00
1.707226e-02 -4.003218e-14 0.000000e+00
2.011923e-02 -3.491584e-14 0.000000e+00
2.156767e-02 -3.041558e-15 0.000000e+00
2.203035e-02 1.134779e-14 0.000000e+00
2.144914e-02 -2.141613e-15 0.000000e+00
1.945336e-02 1.317481e-14 0.000000e+00
1.597246e-02 8.021059e-15 0.000000e+00
1.143310e-02 8.521423e-15 0.000000e+00
6.598729e-03 7.546622e-15 0.000000e+00
2.442773e-03 -2.169164e-15 0.000000e+00
-6.904158e-05 1.880780e-14 0.000000e+00
-1.863238e-04 -1.602273e-14 0.000000e+00
2.683961e-03 -8.399024e-15 0.000000e+00
8.905033e-03 8.936249e-15 0.000000e+00
1.842716e-02 -1.694906e-14 0.000000e+00
3.058371e-02 2.036496e-14 0.000000e+00
4.416778e-02 3.842971e-15 0.000000e+00
5.783334e-02 6.168497e-15 0.000000e+00
7.069805e-02 9.689951e-15 0.000000e+00
8.243498e-02 5.556592e-15 0.000000e+00
9.280208e-02 -4.435907e-15 0.000000e+00
1.016263e-01 -1.410658e-15 0.000000e+00
1.089189e-01 -1.049695e-15 0.000000e+00
1.148280e-01 4.610223e-14 0.000000e+00
1.195864e-01 3.995215e-14 0.000000e+00
1.234189e-01 1.029984e-13 0.000000e+00
1.264863e-01 9.513005e-14 0.000000e+00
1.287636e-01 1.205063e-13 0.000000e+00
1.301927e-01 7.499453e-14 0.000000e+00
1.304538e-01 8.265470e-14 0.000000e+00
1.294469e-01 1.724344e-14 0.000000e+00
1.267192e-01 4.910945e-14 0.000000e+00
1.221278e-01 -1.004252e-14 0.000000e+00
1.153886e-01 3.782732e-14 0.000000e+00
1.055236e-01 -4.391660e-14 0.000000e+00
9.382251e-02 2.840743e-14 0.000000e+00
7.474056e-02 -5.572262e-14 0.000000e+00
5.331877e-02 3.564830e-14 0.000000e+00
0.000000e+00 -3.602366e-14 0.000000e+00
0.000000e+00 -8.453048e-14 0.000000e+00
1.156251e-02 -3.173749e-14 0.000000e+00
1.707226e-02 -2.039317e-14 0.000000e+00
2.011923e-02 -3.099558e-14 0.000000e+00
2.156767e-02 2.516469e-14 0.000000e+00
2.203035e-02 3.961506e-14 0.000000e+00
2.144914e-02 3.708396e-14 0.000000e+00
1.945336e-02 4.075394e-14 0.000000e+00
1.597246e-02 4.447295e-14 0.000000e+00
1.143310e-02 2.310072e-14 0.000000e+00
6.598729e-03 3.098899e-14 0.000000e+00
2.442773e-03 -4.213367e-15 0.000000e+00
-6.904158e-05 2.570334e-14 0.000000e+00
-1.863238e-04 -2.528403e-14 0.000000e+00
2.683961e-03 -1.514246e-14 0.000000e+00
8.905033e-03 6.350520e-15 0.000000e+00
1.842716e-02 -1.254525e-14 0.000000e+00
3.058371e-02 1.077996e-14 0.000000e+00
4.416778e-02 2.775883e-15 0.000000e+00
5.783334e-02 8.015768e-15 0.000000e+00
7.069805e-02 1.873393e-14 0.000000e+00
8.243498e-02 1.629949e-14 0.000000e+00
9.280208e-02 2.052580e-14 0.000000e+00
1.016263e-01 3.589715e-14 0.000000e+00
1.089189e-01 4.024152e-14 0.000000e+00
1.148280e-01 9.816812e-14 0.000000e+00
1.195864e-01 9.540177e-14 0.000000e+00
1.234189e-01 1.741183e-13 0.000000e+00
1.264863e-01 1.431830e-13 0.000000e+00
1.287636e-01 1.794330e-13 0.000000e+00
1.301927e-01 1.067302e-13 0.000000e+00
1.304538e-01 1.083741e-13 0.000000e+00
1.294469e-01 4.170100e-14 0.000000e+00
1.267192e-01 5.025435e-14 0.000000e+00
1.221278e-01 1.280481e-14 0.000000e+00
1.153886e-01 1.785089e-14 0.000000e+00
1.055236e-01 -3.572426e-14 0.000000e+00
9.382251e-02 -6.146868e-15 0.000000e+00
7.474056e-02 -1.950781e-14 0.000000e+00
5.331877e-02 2.445739e-15 0.000000e+00
0.000000e+00 -6.931248e-14 0.000000e+00
0.000000e+00 2.030049e-16 0.000000e+00
1.156251e-02 2.710056e-14 0.000000e+00
1.707226e-02 1.809016e-14 0.000000e+00
2.011923e-02 -9.616986e-15 0.000000e+00
2.156767e-02 4.409957e-14 0.000000e+00
2.203035e-02 5.272711e-14 0.000000e+00
2.144914e-02 5.612492e-14 0.000000e+00
1.945336e-02 6.305674e-14 0.000000e+00
1.597246e-02 5.932676e-14 0.000000e+00
1.143310e-02 3.146284e-14 0.000000e+00
6.598729e-03 3.258198e-14 0.000000e+00
2.442773e-03 -3.687277e-15 0.000000e+00
-6.904158e-05 2.309198e-14 0.000000e+00
-1.863238e-04 -3.122126e-14 0.000000e+00
2.683961e-03 -2.190498e-14 0.000000e+00
8.905033e-03 6.332764e-16 0.000000e+00
1.842716e-02 -2.597700e-14 0.000000e+00
3.058371e-02 1.034765e-14 0.000000e+00
4.416778e-02 -5.993924e-15 0.000000e+00
5.783334e-02 3.096462e-16 0.000000e+00
7.069805e-02 2.078818e-14 0.000000e+00
8.243498e-02 2.767152e-14 0.000000e+00
9.280208e-02 4.462238e-14 0.000000e+00
1.016263e-01 7.329798e-14 0.000000e+00
1.089189e-01 8.299233e-14 0.000000e+00
1.148280e-01 1.413615e-13 0.000000e+00
1.195864e-01 1.190331e-13 0.000000e+00
1.234189e-01 1.907854e-13 0.000000e+00
1.264863e-01 1.483474e-13 0.000000e+00
1.287636e-01 1.787535e-13 0.000000e+00
1.301927e-01 1.023010e-13 0.000000e+00
1.304538e-01 1.094951e-13 0.000000e+00
1.294469e-01 3.331933e-14 0.000000e+00
1.267192e-01 6.261161e-14 0.000000e+00
1.221278e-01 5.594794e-15 0.000000e+00
1.153886e-01 4.164246e-14 0.000000e+00
1.055236e-01 -4.980994e-14 0.000000e+00
9.382251e-02 1.182204e-14 0.000000e+00
7.474056e-02 -4.458380e-14 0.000000e+00
5.331877e-02 3.029758e-14 0.000000e+00
0.000000e+00 -1.097942e-13 0.000000e+00
0.000000e+00 -2.414930e-14 0.000000e+00
1.156251e-02 -1.997959e-14 0.000000e+00
1.707226e-02 -1.940165e-14 0.000000e+00
2.011923e-02 -2.730712e-14 0.000000e+00
2.156767e-02 2.387494e-14 0.000000e+00
2.203035e-02 3.202911e-14 0.000000e+00
2.144914e-02 2.750951e-14 0.000000e+00
1.945336e-02 3.179990e-14 0.000000e+00
1.597246e-02 3.590873e-14 0.000000e+00
1.143310e-02 1.120416e-14 0.000000e+00
6.598729e-03 1.867502e-14 0.000000e+00
2.442773e-03 -1.868749e-14 0.000000e+00
-6.904158e-05 1.625166e-14 0.000000e+00
-1.863238e-04 -3.181591e-14 0.000000e+00
2.683961e-03 -2.134306e-14 0.000000e+00
8.905033e-03 -2.609769e-15 0.000000e+00
1.842716e-02 -1.665205e-14 0.000000e+00
3.058371e-02 5.341745e-15 0.000000e+00
4.416778e-02 -3.360848e-15 0.000000e+00
5.783334e-02 1.279037e-15 0.000000e+00
7.069805e-02 2.454263e-14 0.000000e+00
8.243498e-02 2.390136e-14 0.000000e+00
9.280208e-02 4.157056e-14 0.000000e+00
1.016263e-01 5.809882e-14 0.000000e+00
1.089189e-01 6.672008e-14 0.000000e+00
1.148280e-01 1.151548e-13 0.000000e+00
1.195864e-01 9.559397e-14 0.000000e+00
1.234189e-01 1.568560e-13 0.000000e+00
1.264863e-01 1.156724e-13 0.000000e+00
1.287636e-01 1.436815e-13 0.000000e+00
1.301927e-01 8.161725e-14 0.000000e+00
1.304538e-01 9.155744e-14 0.000000e+00
1.294469e-01 2.544946e-14 0.000000e+00
1.267192e-01 5.208098e-14 0.000000e+00
1.221278e-01 1.101763e-14 0.000000e+00
1.153886e-01 2.810998e-14 0.000000e+00
1.055236e-01 -3.135969e-14 0.000000e+00
9.382251e-02 -5.173424e-15 0.000000e+00
7.474056e-02 -1.095313e-14 0.000000e+00
5.331877e-02 -1.089035e-14 0.000000e+00
0.000000e+00 -1.195683e-13 0.000000e+00
0.000000e+00 -9.445955e-14 0.000000e+00
1.156251e-02 -7.900985e-14 0.000000e+00
1.707226e-02 -6.345241e-14 0.000000e+00
2.011923e-02 -4.287129e-14 0.000000e+00
2.156767e-02 -6.483745e-15 0.000000e+00
2.203035e-02 -7.141179e-16 0.000000e+00
2.144914e-02 -1.108584e-14 0.000000e+00
1.945336e-02 9.154664e-16 0.000000e+00
1.597246e-02 6.014668e-16 0.000000e+00
1.143310e-02 -3.016853e-15 0.000000e+00
6.598729e-03 -5.742862e-15 0.000000e+00
2.442773e-03 -1.258709e-14 0.000000e+00
-6.904158e-05 9.488209e-15 0.000000e+00
-1.863238e-04 -3.037025e-14 0.000000e+00
2.683961e-03 -1.580971e-14 0.000000e+00
8.905033e-03 -5.599113e-16 0.000000e+00
1.842716e-02 -2.543487e-14 0.000000e+00
3.058371e-02 7.212264e-15 0.000000e+00
4.416778e-02 -3.955291e-15 0.000000e+00
5.783334e-02 -8.797864e-16 0.000000e+00
7.069805e-02 1.132410e-14 0.000000e+00
8.243498e-02 1.269705e-14 0.000000e+00
9.280208e-02 1.163614e-14 0.000000e+00
1.016263e-01 2.049836e-14 0.000000e+00
1.089189e-01 1.526876e-14 0.000000e+00
1.148280e-01 5.788145e-14 0.000000e+00
1.195864e-01 3.184151e-14 0.000000e+00
1.234189e-01 8.391564e-14 0.000000e+00
1.264863e-01 6.029089e-14 0.000000e+00
1.287636e-01 8.531866e-14 0.000000e+00
1.301927e-01 4.121031e-14 0.000000e+00
1.304538e-01 5.507569e-14 0.000000e+00
1.294469e-01 1.845354e-15 0.000000e+00
1.267192e-01 4.147660e-14 0.000000e+00
1.221278e-01 -2.142703e-14 0.000000e+00
1.153886e-01 3.866622e-14 0.000000e+00
1.055236e-01 -5.305382e-14 0.000000e+00
9.382251e-02 2.855820e-14 0.000000e+00
7.474056e-02 -5.896276e-14 0.000000e+00
5.331877e-02 4.187438e-14 0.000000e+00
0.000000e+00 3.671080e-15 0.000000e+00
0.000000e+00 0.000000e+00 0.000000e+00
1.156251e-02 0.000000e+00 0.000000e+00
1.707226e-02 0.000000e+00 0.000000e+00
2.011923e-02 0.000000e+00 0.000000e+00
2.156767e-02 0.000000e+00 0.000000e+00
2.203035e-02 0.000000e+00 0.000000e+00
2.144914e-02 0.000000e+00 0.000000e+00
1.945336e-02 0.000000e+00 0.000000e+00
1.597246e-02 0.000000e+00 0.000000e+00
1.143310e-02 0.000000e+00 0.000000e+00
6.598729e-03 0.000000e+00 0.000000e+00
2.442773e-03 0.000000e+00 0.000000e+00
-6.904158e-05 0.000000e+00 0.000000e+00
-1.863238e-04 0.000000e+00 0.000000e+00
2.683961e-03 0.000000e+00 0.000000e+00
8.905033e-03 0.000000e+00 0.000000e+00
1.842716e-02 0.000000e+00 0.000000e+00
3.058371e-02 0.000000e+00 0.000000e+00
4.416778e-02 0.000000e+00 0.000000e+00
5.783334e-02 0.000000e+00 0.000000e+00
7.069805e-02 0.000000e+00 0.000000e+00
8.243498e-02 0.000000e+00 0.000000e+00
9.280208e-02 0.000000e+00 0.000000e+00
1.016263e-01 0.000000e+00 0.000000e+00
1.089189e-01 0.000000e+00 0.000000e+00
1.148280e-01 0.000000e+00 0.000000e+00
1.195864e-01 0.000000e+00 0.000000e+00
1.234189e-01 0.000000e+00 0.000000e+00
1.264863e-01 0.000000e+00 0.000000e+00
1.287636e-01 0.000000e+00 0.000000e+00
1.301927e-01 0.000000e+00 0.000000e+00
1.304538e-01 0.000000e+00 0.000000e+00
1.294469e-01 0.000000e+00 0.000000e+00
1.267192e-01 0.000000e+00 0.000000e+00
1.221278e-01 0.000000e+00 0.000000e+00
1.153886e-01 0.000000e+00 0.000000e+00
1.055236e-01 0.000000e+00 0.000000e+00
9.382251e-02 0.000000e+00 0.000000e+00
7.474056e-02 0.000000e+00 0.000000e+00
5.331877e-02 0.000000e+00 0.000000e+00
0.000000e+00 0.000000e+00 0.000000e+00
0.000000e+00 0.000000e+00 -1.036912e-02
-2.071318e-03 0.000000e+00 -7.747208e-03
-2.932765e-03 0.000000e+00 -4.725217e-03
-3.991929e-03 0.000000e+00 -3.434758e-03
-6.254975e-03 0.000000e+00 -2.103239e-03
-9.766241e-03 0.000000e+00 -1.084407e-03
-1.454054e-02 0.000000e+00 1.119397e-04
-2.014854e-02 0.000000e+00 1.371836e-03
-2.640457e-02 0.000000e+00 2.465130e-03
-3.307713e-02 0.000000e+00 3.030551e-03
-3.974163e-02 0.000000e+00 2.827567e-03
-4.579922e-02 0.000000e+00 1.727737e-03
-5.054789e-02 0.000000e+00 -1.972001e-04
-5.321024e-02 0.000000e+00 -2.840153e-03
-5.294096e-02 0.000000e+00 -6.096323e-03
-4.901260e-02 0.000000e+00 -9.674619e-03
-4.111311e-02 0.000000e+00 -1.301927e-02
-2.966554e-02 0.000000e+00 -1.544327e-02
-1.584838e-02 0.000000e+00 -1.644349e-02
-1.378416e-03 0.000000e+00 -1.605831e-02
1.216469e-02 0.000000e+00 -1.488376e-02
2.393796e-02 0.000000e+00 -1.341509e-02
3.384224e-02 0.000000e+00 -1.184665e-02
4.215181e-02 0.000000e+00 -1.032491e-02
4.916477e-02 0.000000e+00 -8.967753e-03
5.519937e-02 0.000000e+00 -7.836694e-03
6.045552e-02 0.000000e+00 -6.911405e-03
6.501907e-02 0.000000e+00 -6.130669e-03
6.882129e-02 0.000000e+00 -5.350130e-03
7.177629e-02 0.000000e+00 -4.537140e-03
7.382607e-02 0.000000e+00 -3.541101e-03
7.486848e-02 0.000000e+00 -2.394613e-03
7.482396e-02 0.000000e+00 -1.007904e-03
7.335861e-02 0.000000e+00 7.780151e-04
7.024013e-02 0.000000e+00 2.492672e-03
6.525724e-02 0.000000e+00 5.373856e-03
5.802372e-02 0.000000e+00 6.788814e-03
4.926533e-02 0.000000e+00 1.193272e-02
3.708999e-02 0.000000e+00 1.327208e-02
2.271661e-02 0.000000e+00 2.786407e-02
0.000000e+00 0.000000e+00 4.706242e-02
0.000000e+00 5.158724e-16 -1.036912e-02
-2.071318e-03 2.233580e-14 -7.747208e-03
-2.932765e-03 3.700901e-14 -4.725217e-03
-3.991929e-03 4.832608e-14 -3.434758e-03
-6.254975e-03 1.997515e-14 -2.103239e-03
-9.766241e-03 1.975455e-14 -1.084407e-03
-1.454054e-02 3.040759e-14 1.119397e-04
-2.014854e-02 1.981187e-14 1.371836e-03
-2.640457e-02 1.226256e-14 2.465130e-03
-3.307713e-02 3.528831e-15 3.030551e-03
-3.974163e-02 -9.015120e-15 2.827567e-03
-4.579922e-02 -2.604366e-14 1.727737e-03
-5.054789e-02 -6.769411e-15 -1.972001e-04
-5.321024e-02 -5.355979e-14 -2.840153e-03
-5.294096e-02 -3.403803e-14 -6.096323e-03
-4.901260e-02 -5.628437e-14 -9.674619e-03
-4.111311e-02 -8.246126e-14 -1.301927e-02
-2.966554e-02 -7.033359e-14 -1.544327e-02
-1.584838e-02 -1.001056e-13 -1.644349e-02
-1.378416e-03 -1.175689e-13 -1.605831e-02
1.216469e-02 -1.296659e-13 -1.488376e-02
2.393796e-02 -1.582788e-13 -1.341509e-02
3.384224e-02 -1.443621e-13 -1.184665e-02
4.215181e-02 -1.554489e-13 -1.032491e-02
4.916477e-02 -1.365919e-13 -8.967753e-03
5.519937e-02 -1.145534e-13 -7.836694e-03
6.045552e-02 -1.306639e-13 -6.911405e-03
6.501907e-02 -9.151218e-14 -6.130669e-03
6.882129e-02 -8.869269e-14 -5.350130e-03
7.177629e-02 -4.145126e-14 -4.537140e-03
7.382607e-02 -2.971757e-14 -3.541101e-03
7.486848e-02 2.143966e-14 -2.394613e-03
7.482396e-02 1.023112e-15 -1.007904e-03
7.335861e-02 7.650673e-14 7.780151e-04
7.024013e-02 2.461140e-14 2.492672e-03
6.525724e-02 7.291994e-14 5.373856e-03
5.802372e-02 2.439497e-14 6.788814e-03
4.926533e-02 6.951468e-14 1.193272e-02
3.708999e-02 -4.602887e-14 1.327208e-02
2.271661e-02 9.831297e-14 2.786407e-02
0.000000e+00 6.743836e-15 4.706242e-02
0.000000e+00 -1.905209e-14 -1.036912e-02
-2.071318e-03 -2.343279e-14 -7.747208e-03
-2.932765e-03 -1.868838e-14 -4.725217e-03
-3.991929e-03 1.944011e-14 -3.434758e-03
-6.254975e-03 -1.250836e-14 -2.103239e-03
-9.766241e-03 -1.625962e-14 -1.084407e-03
-1.454054e-02 -1.822389e-15 1.119397e-04
-2.014854e-02 -2.784768e-14 1.371836e-03
-2.640457e-02 -1.342208e-14 2.465130e-03
-3.307713e-02 -2.576556e-14 3.030551e-03
-3.974163e-02 -2.084165e-14 2.827567e-03
-4.579922e-02 -5.232669e-14 1.727737e-03
-5.054789e-02 -1.276631e-14 -1.972001e-04
-5.321024e-02 -7.404496e-14 -2.840153e-03
-5.294096e-02 -4.210991e-14 -6.096323e-03
-4.901260e-02 -6.887097e-14 -9.674619e-03
-4.111311e-02 -1.001202e-13 -1.301927e-02
-2.966554e-02 -1.004179e-13 -1.544327e-02
-1.584838e-02 -1.158195e-13 -1.644349e-02
-1.378416e-03 -1.539486e-13 -1.605831e-02
1.216469e-02 -1.647627e-13 -1.488376e-02
2.393796e-02 -2.367973e-13 -1.341509e-02
3.384224e-02 -2.086737e-13 -1.184665e-02
4.215181e-02 -2.597970e-13 -1.032491e-02
4.916477e-02 -2.285327e-13 -8.967753e-03
5.519937e-02 -1.978387e-13 -7.836694e-03
6.045552e-02 -2.026839e-13 -6.911405e-03
6.501907e-02 -1.389277e-13 -6.130669e-03
6.882129e-02 -1.348327e-13 -5.350130e-03
7.177629e-02 -5.972421e-14 -4.537140e-03
7.382607e-02 -4.510036e-14 -3.541101e-03
7.486848e-02 3.815085e-14 -2.394613e-03
7.482396e-02 2.043243e-14 -1.007904e-03
7.335861e-02 9.533070e-14 7.780151e-04
7.024013e-02 5.342874e-14 2.492672e-03
6.525724e-02 7.929938e-14 5.373856e-03
5.802372e-02 7.518526e-14 6.788814e-03
4.926533e-02 6.384022e-14 1.193272e-02
3.708999e-02 7.558964e-16 1.327208e-02
2.271661e-02 9.326316e-14 2.786407e-02
0.000000e+00 3.192771e-14 4.706242e-02
0.000000e+00 -1.215357e-14 -1.036912e-02
-2.071318e-03 -4.748131e-14 -7.747208e-03
-2.932765e-03 -5.735841e-14 -4.725217e-03
-3.991929e-03 -1.839463e-14 -3.434758e-03
-6.254975e-03 -4.880966e-14 -2.103239e-03
-9.766241e-03 -4.975832e-14 -1.084407e-03
-1.454054e-02 -3.821453e-14 1.119397e-04
-2.014854e-02 -5.411003e-14 1.371836e-03
-2.640457e-02 -3.688034e-14 2.465130e-03
-3.307713e-02 -4.089378e-14 3.030551e-03
-3.974163e-02 -3.266193e-14 2.827567e-03
-4.579922e-02 -5.884463e-14 1.727737e-03
-5.054789e-02 -1.338621e-14 -1.972001e-04
-5.321024e-02 -7.377294e-14 -2.840153e-03
-5.294096e-02 -3.742232e-14 -6.096323e-03
-4.901260e-02 -5.766267e-14 -9.674619e-03
-4.111311e-02 -9.253731e-14 -1.301927e-02
-2.966554e-02 -8.532806e-14 -1.544327e-02
-1.584838e-02 -1.076436e-13 -1.644349e-02
-1.378416e-03 -1.348570e-13 -1.605831e-02
1.216469e-02 -1.457100e-13 -1.488376e-02
2.393796e-02 -2.182200e-13 -1.341509e-02
3.384224e-02 -2.149297e-13 -1.184665e-02
4.215181e-02 -2.761272e-13 -1.032491e-02
4.916477e-02 -2.535153e-13 -8.967753e-03
5.519937e-02 -2.130476e-13 -7.836694e-03
6.045552e-02 -2.265024e-13 -6.911405e-03
6.501907e-02 -1.412037e-13 -6.130669e-03
6.882129e-02 -1.362144e-13 -5.350130e-03
7.177629e-02 -5.492445e-14 -4.537140e-03
7.382607e-02 -4.008050e-14 -3.541101e-03
7.486848e-02 3.710244e-14 -2.394613e-03
7.482396e-02 1.675625e-14 -1.007904e-03
7.335861e-02 1.020805e-13 7.780151e-04
7.024013e-02 4.130330e-14 2.492672e-03
6.525724e-02 8.338524e-14 5.373856e-03
5.802372e-02 4.885801e-14 6.788814e-03
4.926533e-02 7.559201e-14 1.193272e-02
3.708999e-02 -4.214575e-14 1.327208e-02
2.271661e-02 1.247818e-13 2.786407e-02
0.000000e+00 7.421308e-15 4.706242e-02
0.000000e+00 -1.425693e-14 -1.036912e-02
-2.071318e-03 -2.682038e-14 -7.747208e-03
-2.932765e-03 -1.244449e-14 -4.725217e-03
-3.991929e-03 1.217131e-14 -3.434758e-03
-6.254975e-03 -2.443545e-14 -2.103239e-03
-9.766241e-03 -1.710465e-14 -1.084407e-03
-1.454054e-02 -2.083317e-15 1.119397e-04
-2.014854e-02 -2.545408e-14 1.371836e-03
-2.640457e-02 -7.016573e-15 2.465130e-03
-3.307713e-02 -2.058389e-14 3.030551e-03
-3.974163e-02 -1.235482e-14 2.827567e-03
-4.579922e-02 -4.349644e-14 1.727737e-03
-5.054789e-02 6.946560e-16 -1.972001e-04
-5.321024e-02 -6.496281e-14 -2.840153e-03
-5.294096e-02 -2.883515e-14 -6.096323e-03
-4.901260e-02 -5.759567e-14 -9.674619e-03
-4.111311e-02 -8.483826e-14 -1.301927e-02
-2.966554e-02 -9.130411e-14 -1.544327e-02
-1.584838e-02 -1.019625e-13 -1.644349e-02
-1.378416e-03 -1.403052e-13 -1.605831e-02
1.216469e-02 -1.443022e-13 -1.488376e-02
2.393796e-02 -2.180562e-13 -1.341509e-02
3.384224e-02 -1.944295e-13 -1.184665e-02
4.215181e-02 -2.513200e-13 -1.032491e-02
4.916477e-02 -2.217804e-13 -8.967753e-03
5.519937e-02 -1.892525e-13 -7.836694e-03
6.045552e-02 -1.960194e-13 -6.911405e-03
6.501907e-02 -1.238329e-13 -6.130669e-03
6.882129e-02 -1.207801e-13 -5.350130e-03
7.177629e-02 -4.684126e-14 -4.537140e-03
7.382607e-02 -3.593748e-14 -3.541101e-03
7.486848e-02 3.781811e-14 -2.394613e-03
7.482396e-02 1.794831e-14 -1.007904e-03
7.335861e-02 8.043179e-14 7.780151e-04
7.024013e-02 4.341638e-14 2.492672e-03
6.525724e-02 5.825302e-14 5.373856e-03
5.802372e-02 5.607696e-14 6.788814e-03
4.926533e-02 4.996448e-14 1.193272e-02
3.708999e-02 -1.563422e-14 1.327208e-02
2.271661e-02 8.968296e-14 2.786407e-02
0.000000e+00 3.120931e-14 4.706242e-02
0.000000e+00 -2.960551e-14 -1.036912e-02
-2.071318e-03 -8.450156e-15 -7.747208e-03
-2.932765e-03 1.477879e-14 -4.725217e-03
-3.991929e-03 4.384799e-14 -3.434758e-03
-6.254975e-03 7.675334e-15 -2.103239e-03
-9.766241e-03 1.741003e-14 -1.084407e-03
-1.454054e-02 2.486585e-14 1.119397e-04
-2.014854e-02 1.545774e-14 1.371836e-03