# vtk DataFile Version 3.0
vtk output
ASCII
DATASET UNSTRUCTURED_GRID
POINTS 11767 float
0.000000e+00 0.000000e+00 0.000000e+00
1.460000e-02 0.000000e+00 0.000000e+00
2.920000e-02 0.000000e+00 0.000000e+00
4.380000e-02 0.000000e+00 0.000000e+00
5.840000e-02 0.000000e+00 0.000000e+00
7.300000e-02 0.000000e+00 0.000000e+00
8.760000e-02 0.000000e+00 0.000000e+00
1.022000e-01 0.000000e+00 0.000000e+00
1.168000e-01 0.000000e+00 0.000000e+00
1.314000e-01 0.000000e+00 0.000000e+00
1.460000e-01 0.000000e+00 0.000000e+00
1.606000e-01 0.000000e+00 0.000000e+00
1.752000e-01 0.000000e+00 0.000000e+00
1.898000e-01 0.000000e+00 0.000000e+00
2.044000e-01 0.000000e+00 0.000000e+00
2.190000e-01 0.000000e+00 0.000000e+00
2.336000e-01 0.000000e+00 0.000000e+00
2.482000e-01 0.000000e+00 0.000000e+00
2.628000e-01 0.000000e+00 0.000000e+00
2.774000e-01 0.000000e+00 0.000000e+00
2.920000e-01 0.000000e+00 0.000000e+00
3.066000e-01 0.000000e+00 0.000000e+00
3.212000e-01 0.000000e+00 0.000000e+00
3.358000e-01 0.000000e+00 0.000000e+00
3.504000e-01 0.000000e+00 0.000000e+00
3.650000e-01 0.000000e+00 0.000000e+00
3.796000e-01 0.000000e+00 0.000000e+00
3.942000e-01 0.000000e+00 0.000000e+00
4.088000e-01 0.000000e+00 0.000000e+00
4.234000e-01 0.000000e+00 0.000000e+00
4.380000e-01 0.000000e+00 0.000000e+00
4.526000e-01 0.000000e+00 0.000000e+00
4.672000e-01 0.000000e+00 0.000000e+00
4.818000e-01 0.000000e+00 0.000000e+00
4.964000e-01 0.000000e+00 0.000000e+00
5.110000e-01 0.000000e+00 0.000000e+00
5.256000e-01 0.000000e+00 0.000000e+00
5.402000e-01 0.000000e+00 0.000000e+00
5.548000e-01 0.000000e+00 0.000000e+00
5.694000e-01 0.000000e+00 0.000000e+00
5.840000e-01 0.000000e+00 0.000000e+00
0.000000e+00 1.460000e-02 0.000000e+00
1.460000e-02 1.460000e-02 0.000000e+00
2.920000e-02 1.460000e-02 0.000000e+00
4.380000e-02 1.460000e-02 0.000000e+00
5.840000e-02 1.460000e-02 0.000000e+00
7.300000e-02 1.460000e-02 0.000000e+00
8.760000e-02 1.460000e-02 0.000000e+00
1.022000e-01 1.460000e-02 0.000000e+00
1.168000e-01 1.460000e-02 0.000000e+00
1.314000e-01 1.460000e-02 0.000000e+00
1.460000e-01 1.460000e-02 0.000000e+00
1.606000e-01 1.460000e-02 0.000000e+00
1.752000e-01 1.460000e-02 0.000000e+00
1.898000e-01 1.460000e-02 0.000000e+00
2.044000e-01 1.460000e-02 0.000000e+00
2.190000e-01 1.460000e-02 0.000000e+00
2.336000e-01 1.460000e-02 0.000000e+00
2.482000e-01 1.460000e-02 0.000000e+00
2.628000e-01 1.460000e-02 0.000000e+00
2.774000e-01 1.460000e-02 0.000000e+00
2.920000e-01 1.460000e-02 0.000000e+00
3.066000e-01 1.460000e-02 0.000000e+00
3.212000e-01 1.460000e-02 0.000000e+00
3.358000e-01 1.460000e-02 0.000000e+00
3.504000e-01 1.460000e-02 0.000000e+00
3.650000e-01 1.460000e-02 0.000000e+00
3.796000e-01 1.460000e-02 0.000000e+00
3.942000e-01 1.460000e-02 0.000000e+00
4.088000e-01 1.460000e-02 0.000000e+00
4.234000e-01 1.460000e-02 0.000000e+00
4.380000e-01 1.460000e-02 0.000000e+00
4.526000e-01 1.460000e-02 0.000000e+00
4.672000e-01 1.460000e-02 0.000000e+00
4.818000e-01 1.460000e-02 0.000000e+00
4.964000e-01 1.460000e-02 0.000000e+00
5.110000e-01 1.460000e-02 0.000000e+00
5.256000e-01 1.460000e-02 0.000000e+00
5.402000e-01 1.460000e-02 0.000000e+00
5.548000e-01 1.460000e-02 0.000000e+00
5.694000e-01 1.460000e-02 0.000000e+00
5.840000e-01 1.460000e-02 0.000000e+00
0.000000e+00 2.920000e-02 0.000000e+00
1.460000e-02 2.920000e-02 0.000000e+00
2.920000e-02 2.920000e-02 0.000000e+00
4.380000e-02 2.920000e-02 0.000000e+00
5.840000e-02 2.920000e-02 0.000000e+00
7.300000e-02 2.920000e-02 0.000000e+00
8.760000e-02 2.920000e-02 0.000000e+00
1.022000e-01 2.920000e-02 0.000000e+00
1.168000e-01 2.920000e-02 0.000000e+00
1.314000e-01 2.920000e-02 0.000000e+00
1.460000e-01 2.920000e-02 0.000000e+00
1.606000e-01 2.920000e-02 0.000000e+00
1.752000e-01 2.920000e-02 0.000000e+00
1.898000e-01 2.920000e-02 0.000000e+00
2.044000e-01 2.920000e-02 0.000000e+00
2.190000e-01 2.920000e-02 0.000000e+00
2.336000e-01 2.920000e-02 0.000000e+00
2.482000e-01 2.920000e-02 0.000000e+00
2.628000e-01 2.920000e-02 0.000000e+00
2.774000e-01 2.920000e-02 0.000000e+00
2.920000e-01 2.920000e-02 0.000000e+00
3.066000e-01 2.920000e-02 0.000000e+00
3.212000e-01 2.920000e-02 0.000000e+00
3.358000e-01 2.920000e-02 0.000000e+00
3.504000e-01 2.920000e-02 0.000000e+00
3.650000e-01 2.920000e-02 0.000000e+00
3.796000e-01 2.920000e-02 0.000000e+00
3.942000e-01 2.920000e-02 0.000000e+00
4.088000e-01 2.920000e-02 0.000000e+00
4.234000e-01 2.920000e-02 0.000000e+00
4.380000e-01 2.920000e-02 0.000000e+00
4.526000e-01 2.920000e-02 0.000000e+00
4.672000e-01 2.920000e-02 0.000000e+00
4.818000e-01 2.920000e-02 0.000000e+00
4.964000e-01 2.920000e-02 0.000000e+00
5.110000e-01 2.920000e-02 0.000000e+00
5.256000e-01 2.920000e-02 0.000000e+00
5.402000e-01 2.920000e-02 0.000000e+00
5.548000e-01 2.920000e-02 0.000000e+00
5.694000e-01 2.920000e-02 0.000000e+00
5.840000e-01 2.920000e-02 0.000000e+00
0.000000e+00 4.380000e-02 0.000000e+00
1.460000e-02 4.380000e-02 0.000000e+00
2.920000e-02 4.380000e-02 0.000000e+00
4.380000e-02 4.380000e-02 0.000000e+00
5.840000e-02 4.380000e-02 0.000000e+00
7.300000e-02 4.380000e-02 0.000000e+00
8.760000e-02 4.380000e-02 0.000000e+00
1.022000e-01 4.380000e-02 0.000000e+00
1.168000e-01 4.380000e-02 0.000000e+00
1.314000e-01 4.380000e-02 0.000000e+00
1.460000e-01 4.380000e-02 0.000000e+00
1.606000e-01 4.380000e-02 0.000000e+00
1.752000e-01 4.380000e-02 0.000000e+00
1.898000e-01 4.380000e-02 0.000000e+00
2.044000e-01 4.380000e-02 0.000000e+00
2.190000e-01 4.380000e-02 0.000000e+00
2.336000e-01 4.380000e-02 0.000000e+00
2.482000e-01 4.380000e-02 0.000000e+00
2.628000e-01 4.380000e-02 0.000000e+00
2.774000e-01 4.380000e-02 0.000000e+00
2.920000e-01 4.380000e-02 0.000000e+00
3.066000e-01 4.380000e-02 0.000000e+00
3.212000e-01 4.380000e-02 0.000000e+00
3.358000e-01 4.380000e-02 0.000000e+00
3.504000e-01 4.380000e-02 0.000000e+00
3.650000e-01 4.380000e-02 0.000000e+00
3.796000e-01 4.380000e-02 0.000000e+00
3.942000e-01 4.380000e-02 0.000000e+00
4.088000e-01 4.380000e-02 0.000000e+00
4.234000e-01 4.380000e-02 0.000000e+00
4.380000e-01 4.380000e-02 0.000000e+00
4.526000e-01 4.380000e-02 0.000000e+00
4.672000e-01 4.380000e-02 0.000000e+00
4.818000e-01 4.380000e-02 0.000000e+00
4.964000e-01 4.380000e-02 0.000000e+00
5.110000e-01 4.380000e-02 0.000000e+00
5.256000e-01 4.380000e-02 0.000000e+00
5.402000e-01 4.380000e-02 0.000000e+00
5.548000e-01 4.380000e-02 0.000000e+00
5.694000e-01 4.380000e-02 0.000000e+00
5.840000e-01 4.380000e-02 0.000000e+00
0.000000e+00 5.840000e-02 0.000000e+00
1.460000e-02 5.840000e-02 0.000000e+00
2.920000e-02 5.840000e-02 0.000000e+00
4.380000e-02 5.840000e-02 0.000000e+00
5.840000e-02 5.840000e-02 0.000000e+00
7.300000e-02 5.840000e-02 0.000000e+00
8.760000e-02 5.840000e-02 0.000000e+00
1.022000e-01 5.840000e-02 0.000000e+00
1.168000e-01 5.840000e-02 0.000000e+00
1.314000e-01 5.840000e-02 0.000000e+00
1.460000e-01 5.840000e-02 0.000000e+00
1.606000e-01 5.840000e-02 0.000000e+00
1.752000e-01 5.840000e-02 0.000000e+00
1.898000e-01 5.840000e-02 0.000000e+00
2.044000e-01 5.840000e-02 0.000000e+00
2.190000e-01 5.840000e-02 0.000000e+00
2.336000e-01 5.840000e-02 0.000000e+00
2.482000e-01 5.840000e-02 0.000000e+00
2.628000e-01 5.840000e-02 0.000000e+00
2.774000e-01 5.840000e-02 0.000000e+00
2.920000e-01 5.840000e-02 0.000000e+00
3.066000e-01 5.840000e-02 0.000000e+00
3.212000e-01 5.840000e-02 0.000000e+00
3.358000e-01 5.840000e-02 0.000000e+00
3.504000e-01 5.840000e-02 0.000000e+00
3.650000e-01 5.840000e-02 0.000000e+00
3.796000e-01 5.840000e-02 0.000000e+00
3.942000e-01 5.840000e-02 0.000000e+00
4.088000e-01 5.840000e-02 0.000000e+00
4.234000e-01 5.840000e-02 0.000000e+00
4.380000e-01 5.840000e-02 0.000000e+00
4.526000e-01 5.840000e-02 0.000000e+00
4.672000e-01 5.840000e-02 0.000000e+00
4.818000e-01 5.840000e-02 0.000000e+00
4.964000e-01 5.840000e-02 0.000000e+00
5.110000e-01 5.840000e-02 0.000000e+00
5.256000e-01 5.840000e-02 0.000000e+00
5.402000e-01 5.840000e-02 0.000000e+00
5.548000e-01 5.840000e-02 0.000000e+00
5.694000e-01 5.840000e-02 0.000000e+00
5.840000e-01 5.840000e-02 0.000000e+00
0.000000e+00 7.300000e-02 0.000000e+00
1.460000e-02 7.300000e-02 0.000000e+00
2.920000e-02 7.300000e-02 0.000000e+00
4.380000e-02 7.300000e-02 0.000000e+00
5.840000e-02 7.300000e-02 0.000000e+00
7.300000e-02 7.300000e-02 0.000000e+00
8.760000e-02 7.300000e-02 0.000000e+00
1.022000e-01 7.300000e-02 0.000000e+00
1.168000e-01 7.300000e-02 0.000000e+00
1.314000e-01 7.300000e-02 0.000000e+00
1.460000e-01 7.300000e-02 0.000000e+00
1.606000e-01 7.300000e-02 0.000000e+00
1.752000e-01 7.300000e-02 0.000000e+00
1.898000e-01 7.300000e-02 0.000000e+00
2.044000e-01 7.300000e-02 0.000000e+00
2.190000e-01 7.300000e-02 0.000000e+00
2.336000e-01 7.300000e-02 0.000000e+00
2.482000e-01 7.300000e-02 0.000000e+00
2.628000e-01 7.300000e-02 0.000000e+00
2.774000e-01 7.300000e-02 0.000000e+00
2.920000e-01 7.300000e-02 0.000000e+00
3.066000e-01 7.300000e-02 0.000000e+00
3.212000e-01 7.300000e-02 0.000000e+00
3.358000e-01 7.300000e-02 0.000000e+00
3.504000e-01 7.300000e-02 0.000000e+00
3.650000e-01 7.300000e-02 0.000000e+00
3.796000e-01 7.300000e-02 0.000000e+00
3.942000e-01 7.300000e-02 0.000000e+00
4.088000e-01 7.300000e-02 0.000000e+00
4.234000e-01 7.300000e-02 0.000000e+00
4.380000e-01 7.300000e-02 0.000000e+00
4.526000e-01 7.300000e-02 0.000000e+00
4.672000e-01 7.300000e-02 0.000000e+00
4.818000e-01 7.300000e-02 0.000000e+00
4.964000e-01 7.300000e-02 0.000000e+00
5.110000e-01 7.300000e-02 0.000000e+00
5.256000e-01 7.300000e-02 0.000000e+00
5.402000e-01 7.300000e-02 0.000000e+00
5.548000e-01 7.300000e-02 0.000000e+00
5.694000e-01 7.300000e-02 0.000000e+00
5.840000e-01 7.300000e-02 0.000000e+00
0.000000e+00 8.760000e-02 0.000000e+00
1.460000e-02 8.760000e-02 0.000000e+00
2.920000e-02 8.760000e-02 0.000000e+00
4.380000e-02 8.760000e-02 0.000000e+00
5.840000e-02 8.760000e-02 0.000000e+00
7.300000e-02 8.760000e-02 0.000000e+00
8.760000e-02 8.760000e-02 0.000000e+00
1.022000e-01 8.760000e-02 0.000000e+00
[...]
POINT_DATA 11767
VECTORS Velocity float
0.000000e+00 0.000000e+00 0.000000e+00
2.840818e-02 0.000000e+00 0.000000e+00
4.900208e-02 0.000000e+00 0.000000e+00
6.563009e-02 0.000000e+00 0.000000e+00
7.926490e-02 0.000000e+00 0.000000e+00
9.090841e-02 0.000000e+00 0.000000e+00
1.006338e-01 0.000000e+00 0.000000e+00
1.087160e-01 0.000000e+00 0.000000e+00
1.152044e-01 0.000000e+00 0.000000e+00
1.203759e-01 0.000000e+00 0.000000e+00
1.245316e-01 0.000000e+00 0.000000e+00
1.281064e-01 0.000000e+00 0.000000e+00
1.314863e-01 0.000000e+00 0.000000e+00
1.350251e-01 0.000000e+00 0.000000e+00
1.388375e-01 0.000000e+00 0.000000e+00
1.428066e-01 0.000000e+00 0.000000e+00
1.466389e-01 0.000000e+00 0.000000e+00
1.499479e-01 0.000000e+00 0.000000e+00
1.523527e-01 0.000000e+00 0.000000e+00
1.535693e-01 0.000000e+00 0.000000e+00
1.534244e-01 0.000000e+00 0.000000e+00
1.518759e-01 0.000000e+00 0.000000e+00
1.489588e-01 0.000000e+00 0.000000e+00
1.448534e-01 0.000000e+00 0.000000e+00
1.398082e-01 0.000000e+00 0.000000e+00
1.342414e-01 0.000000e+00 0.000000e+00
1.285444e-01 0.000000e+00 0.000000e+00
1.232058e-01 0.000000e+00 0.000000e+00
1.185434e-01 0.000000e+00 0.000000e+00
1.147937e-01 0.000000e+00 0.000000e+00
1.117968e-01 0.000000e+00 0.000000e+00
1.092945e-01 0.000000e+00 0.000000e+00
1.068222e-01 0.000000e+00 0.000000e+00
1.037893e-01 0.000000e+00 0.000000e+00
9.986465e-02 0.000000e+00 0.000000e+00
9.487345e-02 0.000000e+00 0.000000e+00
8.799643e-02 0.000000e+00 0.000000e+00
8.042940e-02 0.000000e+00 0.000000e+00
6.618786e-02 0.000000e+00 0.000000e+00
4.957483e-02 0.000000e+00 0.000000e+00
0.000000e+00 0.000000e+00 0.000000e+00
0.000000e+00 -6.435054e-14 0.000000e+00
2.840818e-02 -3.866852e-14 0.000000e+00
4.900208e-02 -5.192577e-14 0.000000e+00
6.563009e-02 -1.844463e-14 0.000000e+00
7.926490e-02 -4.422425e-14 0.000000e+00
9.090841e-02 -7.833099e-14 0.000000e+00
1.006338e-01 -9.942794e-14 0.000000e+00
1.087160e-01 -1.312537e-13 0.000000e+00
1.152044e-01 -6.519947e-14 0.000000e+00
1.203759e-01 -1.065733e-13 0.000000e+00
1.245316e-01 -4.835561e-14 0.000000e+00
1.281064e-01 -2.349074e-14 0.000000e+00
1.314863e-01 -1.429372e-14 0.000000e+00
1.350251e-01 -5.365114e-15 0.000000e+00
1.388375e-01 2.495679e-14 0.000000e+00
1.428066e-01 -2.203108e-14 0.000000e+00
1.466389e-01 4.062215e-14 0.000000e+00
1.499479e-01 2.811381e-14 0.000000e+00
1.523527e-01 4.571351e-14 0.000000e+00
1.535693e-01 6.551688e-14 0.000000e+00
1.534244e-01 1.175970e-14 0.000000e+00
1.518759e-01 -2.658718e-14 0.000000e+00
1.489588e-01 -1.292321e-13 0.000000e+00
1.448534e-01 -1.491360e-13 0.000000e+00
1.398082e-01 -2.507053e-13 0.000000e+00
1.342414e-01 -2.333950e-13 0.000000e+00
1.285444e-01 -2.152253e-13 0.000000e+00
1.232058e-01 -1.237752e-13 0.000000e+00
1.185434e-01 -8.722111e-14 0.000000e+00
1.147937e-01 -6.403765e-14 0.000000e+00
1.117968e-01 -1.319973e-13 0.000000e+00
1.092945e-01 -1.622473e-13 0.000000e+00
1.068222e-01 -2.009908e-13 0.000000e+00
1.037893e-01 -1.300784e-13 0.000000e+00
9.986465e-02 -1.585020e-13 0.000000e+00
9.487345e-02 -1.268546e-13 0.000000e+00
8.799643e-02 -1.597702e-13 0.000000e+00
8.042940e-02 -1.110479e-13 0.000000e+00
6.618786e-02 -7.749022e-14 0.000000e+00
4.957483e-02 2.579631e-15 0.000000e+00
0.000000e+00 -9.145181e-14 0.000000e+00
0.000000e+00 -1.395137e-13 0.000000e+00
2.840818e-02 -1.626163e-14 0.000000e+00
4.900208e-02 -6.238841e-14 0.000000e+00
6.563009e-02 -4.631519e-14 0.000000e+00
7.926490e-02 -7.299976e-14 0.000000e+00
9.090841e-02 -1.148621e-13 0.000000e+00
1.006338e-01 -1.177216e-13 0.000000e+00
1.087160e-01 -1.787524e-13 0.000000e+00
1.152044e-01 -6.022695e-14 0.000000e+00
1.203759e-01 -1.513539e-13 0.000000e+00
1.245316e-01 -4.449010e-14 0.000000e+00
1.281064e-01 -3.645989e-14 0.000000e+00
1.314863e-01 -2.854561e-14 0.000000e+00
1.350251e-01 -1.080743e-14 0.000000e+00
1.388375e-01 4.824895e-14 0.000000e+00
1.428066e-01 -4.596257e-14 0.000000e+00
1.466389e-01 7.699783e-14 0.000000e+00
1.499479e-01 3.842832e-14 0.000000e+00
1.523527e-01 7.086071e-14 0.000000e+00
1.535693e-01 1.023055e-13 0.000000e+00
1.534244e-01 3.484196e-14 0.000000e+00
1.518759e-01 -9.655951e-15 0.000000e+00
1.489588e-01 -1.264805e-13 0.000000e+00
1.448534e-01 -1.003971e-13 0.000000e+00
1.398082e-01 -2.362901e-13 0.000000e+00
1.342414e-01 -1.882401e-13 0.000000e+00
1.285444e-01 -1.778754e-13 0.000000e+00
1.232058e-01 -8.634641e-14 0.000000e+00
1.185434e-01 -7.502552e-14 0.000000e+00
1.147937e-01 -3.219688e-14 0.000000e+00
1.117968e-01 -1.048422e-13 0.000000e+00
1.092945e-01 -1.233514e-13 0.000000e+00
1.068222e-01 -2.039576e-13 0.000000e+00
1.037893e-01 -1.952716e-13 0.000000e+00
9.986465e-02 -2.102012e-13 0.000000e+00
9.487345e-02 -2.167616e-13 0.000000e+00
8.799643e-02 -2.032576e-13 0.000000e+00
8.042940e-02 -2.203744e-13 0.000000e+00
6.618786e-02 -8.156771e-14 0.000000e+00
4.957483e-02 -9.541990e-14 0.000000e+00
0.000000e+00 -1.623855e-13 0.000000e+00
0.000000e+00 -2.590872e-14 0.000000e+00
2.840818e-02 -7.118798e-15 0.000000e+00
4.900208e-02 -3.126283e-14 0.000000e+00
6.563009e-02 -3.873447e-14 0.000000e+00
7.926490e-02 -5.034056e-14 0.000000e+00
9.090841e-02 -5.352393e-14 0.000000e+00
1.006338e-01 -2.334952e-14 0.000000e+00
1.087160e-01 -9.945145e-14 0.000000e+00
1.152044e-01 3.477199e-14 0.000000e+00
1.203759e-01 -9.985627e-14 0.000000e+00
1.245316e-01 -2.466970e-16 0.000000e+00
1.281064e-01 -1.058567e-14 0.000000e+00
1.314863e-01 -1.510584e-14 0.000000e+00
1.350251e-01 -2.066050e-16 0.000000e+00
1.388375e-01 6.764723e-14 0.000000e+00
1.428066e-01 -4.118194e-14 0.000000e+00
1.466389e-01 8.528198e-14 0.000000e+00
1.499479e-01 3.613034e-14 0.000000e+00
1.523527e-01 6.218092e-14 0.000000e+00
1.535693e-01 1.038258e-13 0.000000e+00
1.534244e-01 4.502022e-14 0.000000e+00
1.518759e-01 2.447198e-14 0.000000e+00
1.489588e-01 -7.628574e-14 0.000000e+00
1.448534e-01 4.750671e-15 0.000000e+00
1.398082e-01 -1.034981e-13 0.000000e+00
1.342414e-01 -3.792058e-14 0.000000e+00
1.285444e-01 -4.630038e-14 0.000000e+00
1.232058e-01 6.260959e-15 0.000000e+00
1.185434e-01 -2.273032e-14 0.000000e+00
1.147937e-01 2.625002e-14 0.000000e+00
1.117968e-01 -1.277612e-14 0.000000e+00
1.092945e-01 -2.531452e-15 0.000000e+00
1.068222e-01 -1.296765e-13 0.000000e+00
1.037893e-01 -1.576732e-13 0.000000e+00
9.986465e-02 -2.205417e-13 0.000000e+00
9.487345e-02 -1.985359e-13 0.000000e+00
8.799643e-02 -2.119196e-13 0.000000e+00
8.042940e-02 -1.942649e-13 0.000000e+00
6.618786e-02 -1.379899e-13 0.000000e+00
4.957483e-02 -8.675348e-14 0.000000e+00
0.000000e+00 -1.655768e-13 0.000000e+00
0.000000e+00 2.022312e-14 0.000000e+00
2.840818e-02 -3.062402e-14 0.000000e+00
4.900208e-02 -1.399065e-15 0.000000e+00
6.563009e-02 -8.165569e-15 0.000000e+00
7.926490e-02 6.729976e-15 0.000000e+00
9.090841e-02 1.703554e-14 0.000000e+00
1.006338e-01 6.697463e-14 0.000000e+00
1.087160e-01 4.500114e-15 0.000000e+00
1.152044e-01 1.140763e-13 0.000000e+00
1.203759e-01 -1.381805e-14 0.000000e+00
1.245316e-01 5.696271e-14 0.000000e+00
1.281064e-01 2.370731e-14 0.000000e+00
1.314863e-01 1.425796e-14 0.000000e+00
1.350251e-01 1.743478e-14 0.000000e+00
1.388375e-01 6.635056e-14 0.000000e+00
1.428066e-01 -3.697177e-14 0.000000e+00
1.466389e-01 7.581887e-14 0.000000e+00
1.499479e-01 2.467257e-14 0.000000e+00
1.523527e-01 4.035538e-14 0.000000e+00
1.535693e-01 7.618169e-14 0.000000e+00
1.534244e-01 2.147370e-14 0.000000e+00
1.518759e-01 9.942936e-15 0.000000e+00
1.489588e-01 -8.864089e-14 0.000000e+00
1.448534e-01 -1.792309e-14 0.000000e+00
1.398082e-01 -1.167294e-13 0.000000e+00
1.342414e-01 -6.091979e-14 0.000000e+00
1.285444e-01 -6.565872e-14 0.000000e+00
1.232058e-01 -2.167834e-14 0.000000e+00
1.185434e-01 -3.941876e-14 0.000000e+00
1.147937e-01 -5.825568e-15 0.000000e+00
1.117968e-01 -4.892519e-14 0.000000e+00
1.092945e-01 -3.439210e-14 0.000000e+00
1.068222e-01 -1.244467e-13 0.000000e+00
1.037893e-01 -1.230966e-13 0.000000e+00
9.986465e-02 -1.723765e-13 0.000000e+00
9.487345e-02 -1.704777e-13 0.000000e+00
8.799643e-02 -1.684242e-13 0.000000e+00
8.042940e-02 -1.652517e-13 0.000000e+00
6.618786e-02 -9.549037e-14 0.000000e+00
4.957483e-02 -8.572271e-14 0.000000e+00
0.000000e+00 -1.441144e-13 0.000000e+00
0.000000e+00 -6.859722e-14 0.000000e+00
2.840818e-02 -2.073794e-14 0.000000e+00
4.900208e-02 -1.863057e-14 0.000000e+00
6.563009e-02 -7.371069e-16 0.000000e+00
7.926490e-02 1.585054e-15 0.000000e+00
9.090841e-02 2.962734e-14 0.000000e+00
1.006338e-01 5.955031e-14 0.000000e+00
1.087160e-01 3.083378e-14 0.000000e+00
1.152044e-01 9.175104e-14 0.000000e+00
1.203759e-01 1.401535e-14 0.000000e+00
1.245316e-01 5.323306e-14 0.000000e+00
1.281064e-01 1.779733e-14 0.000000e+00
1.314863e-01 2.072215e-14 0.000000e+00
1.350251e-01 2.793214e-15 0.000000e+00
1.388375e-01 3.229333e-14 0.000000e+00
1.428066e-01 -3.006094e-14 0.000000e+00
1.466389e-01 3.215398e-14 0.000000e+00
1.499479e-01 2.862229e-15 0.000000e+00
1.523527e-01 1.078488e-14 0.000000e+00
1.535693e-01 2.868137e-14 0.000000e+00
1.534244e-01 -9.549477e-15 0.000000e+00
1.518759e-01 -2.065279e-14 0.000000e+00
1.489588e-01 -1.050775e-13 0.000000e+00
1.448534e-01 -7.678872e-14 0.000000e+00
1.398082e-01 -1.584800e-13 0.000000e+00
1.342414e-01 -1.148183e-13 0.000000e+00
1.285444e-01 -1.279081e-13 0.000000e+00
1.232058e-01 -6.346168e-14 0.000000e+00
1.185434e-01 -6.691675e-14 0.000000e+00
1.147937e-01 -4.735446e-14 0.000000e+00
1.117968e-01 -9.980710e-14 0.000000e+00
1.092945e-01 -9.237490e-14 0.000000e+00
1.068222e-01 -1.293526e-13 0.000000e+00
1.037893e-01 -6.979013e-14 0.000000e+00
9.986465e-02 -1.177361e-13 0.000000e+00
9.487345e-02 -8.610774e-14 0.000000e+00
8.799643e-02 -1.342716e-13 0.000000e+00
8.042940e-02 -6.842413e-14 0.000000e+00
6.618786e-02 -9.149807e-14 0.000000e+00
4.957483e-02 1.562106e-14 0.000000e+00
0.000000e+00 -6.327334e-14 0.000000e+00
0.000000e+00 0.000000e+00 0.000000e+00
2.840818e-02 0.000000e+00 0.000000e+00
4.900208e-02 0.000000e+00 0.000000e+00
6.563009e-02 0.000000e+00 0.000000e+00
7.926490e-02 0.000000e+00 0.000000e+00
9.090841e-02 0.000000e+00 0.000000e+00
1.006338e-01 0.000000e+00 0.000000e+00
1.087160e-01 0.000000e+00 0.000000e+00
1.152044e-01 0.000000e+00 0.000000e+00
1.203759e-01 0.000000e+00 0.000000e+00
1.245316e-01 0.000000e+00 0.000000e+00
1.281064e-01 0.000000e+00 0.000000e+00
1.314863e-01 0.000000e+00 0.000000e+00
1.350251e-01 0.000000e+00 0.000000e+00
1.388375e-01 0.000000e+00 0.000000e+00
1.428066e-01 0.000000e+00 0.000000e+00
1.466389e-01 0.000000e+00 0.000000e+00
1.499479e-01 0.000000e+00 0.000000e+00
1.523527e-01 0.000000e+00 0.000000e+00
1.535693e-01 0.000000e+00 0.000000e+00
1.534244e-01 0.000000e+00 0.000000e+00
1.518759e-01 0.000000e+00 0.000000e+00
1.489588e-01 0.000000e+00 0.000000e+00
1.448534e-01 0.000000e+00 0.000000e+00
1.398082e-01 0.000000e+00 0.000000e+00
1.342414e-01 0.000000e+00 0.000000e+00
1.285444e-01 0.000000e+00 0.000000e+00
1.232058e-01 0.000000e+00 0.000000e+00
1.185434e-01 0.000000e+00 0.000000e+00
1.147937e-01 0.000000e+00 0.000000e+00
1.117968e-01 0.000000e+00 0.000000e+00
1.092945e-01 0.000000e+00 0.000000e+00
1.068222e-01 0.000000e+00 0.000000e+00
1.037893e-01 0.000000e+00 0.000000e+00
9.986465e-02 0.000000e+00 0.000000e+00
9.487345e-02 0.000000e+00 0.000000e+00
8.799643e-02 0.000000e+00 0.000000e+00
8.042940e-02 0.000000e+00 0.000000e+00
6.618786e-02 0.000000e+00 0.000000e+00
4.957483e-02 0.000000e+00 0.000000e+00
0.000000e+00 0.000000e+00 0.000000e+00
0.000000e+00 0.000000e+00 -2.676449e-02
1.289989e-02 0.000000e+00 -2.346660e-02
2.711678e-02 0.000000e+00 -1.906924e-02
4.022589e-02 0.000000e+00 -1.663094e-02
5.207107e-02 0.000000e+00 -1.449678e-02
6.236137e-02 0.000000e+00 -1.270640e-02
7.087393e-02 0.000000e+00 -1.086632e-02
7.737059e-02 0.000000e+00 -9.123308e-03
8.194737e-02 0.000000e+00 -7.540587e-03
8.494825e-02 0.000000e+00 -6.309085e-03
8.685349e-02 0.000000e+00 -5.483273e-03
8.811708e-02 0.000000e+00 -5.083430e-03
8.911582e-02 0.000000e+00 -5.038631e-03
9.008453e-02 0.000000e+00 -5.235093e-03
9.122899e-02 0.000000e+00 -5.486382e-03
9.264968e-02 0.000000e+00 -5.580442e-03
9.414313e-02 0.000000e+00 -5.329801e-03
9.533088e-02 0.000000e+00 -4.676117e-03
9.581651e-02 0.000000e+00 -3.671181e-03
9.528273e-02 0.000000e+00 -2.430018e-03
9.357847e-02 0.000000e+00 -1.103076e-03
9.074577e-02 0.000000e+00 1.837271e-04
8.697278e-02 0.000000e+00 1.325172e-03
8.248595e-02 0.000000e+00 2.240627e-03
7.756107e-02 0.000000e+00 2.837942e-03
7.246342e-02 0.000000e+00 3.056326e-03
6.753482e-02 0.000000e+00 2.874615e-03
6.301583e-02 0.000000e+00 2.329631e-03
5.914964e-02 0.000000e+00 1.532487e-03
5.604682e-02 0.000000e+00 6.453820e-04
5.386488e-02 0.000000e+00 -6.042102e-05
5.233954e-02 0.000000e+00 -4.525822e-04
5.118543e-02 0.000000e+00 -2.915110e-04
4.973525e-02 0.000000e+00 4.171896e-04
4.764341e-02 0.000000e+00 1.237995e-03
4.433176e-02 0.000000e+00 3.005093e-03
3.980453e-02 0.000000e+00 3.433514e-03
3.392076e-02 0.000000e+00 7.665040e-03
2.600335e-02 0.000000e+00 8.384534e-03
1.638303e-02 0.000000e+00 2.313002e-02
0.000000e+00 0.000000e+00 4.245664e-02
0.000000e+00 -1.203463e-16 -2.676449e-02
1.289989e-02 1.380916e-14 -2.346660e-02
2.711678e-02 6.289264e-14 -1.906924e-02
4.022589e-02 1.269084e-13 -1.663094e-02
5.207107e-02 1.375852e-13 -1.449678e-02
6.236137e-02 2.426521e-13 -1.270640e-02
7.087393e-02 2.768620e-13 -1.086632e-02
7.737059e-02 2.970264e-13 -9.123308e-03
8.194737e-02 3.019088e-13 -7.540587e-03
8.494825e-02 2.641450e-13 -6.309085e-03
8.685349e-02 2.369740e-13 -5.483273e-03
8.811708e-02 1.706644e-13 -5.083430e-03
8.911582e-02 1.828139e-13 -5.038631e-03
9.008453e-02 1.205479e-13 -5.235093e-03
9.122899e-02 8.747061e-14 -5.486382e-03
9.264968e-02 8.485991e-14 -5.580442e-03
9.414313e-02 -1.628852e-14 -5.329801e-03
9.533088e-02 -4.661816e-14 -4.676117e-03
9.581651e-02 -1.025402e-13 -3.671181e-03
9.528273e-02 -1.669272e-13 -2.430018e-03
9.357847e-02 -6.760607e-14 -1.103076e-03
9.074577e-02 -7.893025e-14 1.837271e-04
8.697278e-02 9.120728e-15 1.325172e-03
8.248595e-02 -1.047824e-13 2.240627e-03
7.756107e-02 -1.257165e-13 2.837942e-03
7.246342e-02 -2.438823e-13 3.056326e-03
6.753482e-02 -5.116952e-13 2.874615e-03
6.301583e-02 -6.361058e-13 2.329631e-03
5.914964e-02 -7.293097e-13 1.532487e-03
5.604682e-02 -5.948758e-13 6.453820e-04
5.386488e-02 -2.495212e-13 -6.042102e-05
5.233954e-02 2.517938e-13 -4.525822e-04
5.118543e-02 5.386411e-13 -2.915110e-04
4.973525e-02 6.259966e-13 4.171896e-04
4.764341e-02 2.648372e-13 1.237995e-03
4.433176e-02 1.644926e-13 3.005093e-03
3.980453e-02 -9.747810e-14 3.433514e-03
3.392076e-02 -6.185015e-17 7.665040e-03
2.600335e-02 -2.390718e-13 8.384534e-03
1.638303e-02 4.614228e-14 2.313002e-02
0.000000e+00 -1.971075e-13 4.245664e-02
0.000000e+00 -5.150745e-15 -2.676449e-02
1.289989e-02 1.565963e-14 -2.346660e-02
2.711678e-02 4.674825e-14 -1.906924e-02
4.022589e-02 1.580300e-13 -1.663094e-02
5.207107e-02 1.811133e-13 -1.449678e-02
6.236137e-02 3.511938e-13 -1.270640e-02
7.087393e-02 3.884351e-13 -1.086632e-02
7.737059e-02 4.173585e-13 -9.123308e-03
8.194737e-02 4.366930e-13 -7.540587e-03
8.494825e-02 3.715557e-13 -6.309085e-03
8.685349e-02 3.484450e-13 -5.483273e-03
8.811708e-02 2.304417e-13 -5.083430e-03
8.911582e-02 2.634992e-13 -5.038631e-03
9.008453e-02 1.502831e-13 -5.235093e-03
9.122899e-02 1.206257e-13 -5.486382e-03
9.264968e-02 1.272242e-13 -5.580442e-03
9.414313e-02 -5.092073e-15 -5.329801e-03
9.533088e-02 -4.218637e-14 -4.676117e-03
9.581651e-02 -9.124282e-14 -3.671181e-03
9.528273e-02 -1.988015e-13 -2.430018e-03
9.357847e-02 -1.860810e-14 -1.103076e-03
9.074577e-02 -7.335477e-14 1.837271e-04
8.697278e-02 1.039585e-13 1.325172e-03
8.248595e-02 -7.426500e-14 2.240627e-03
7.756107e-02 -2.801889e-14 2.837942e-03
7.246342e-02 -1.165739e-13 3.056326e-03
6.753482e-02 -3.607303e-13 2.874615e-03
6.301583e-02 -4.856911e-13 2.329631e-03
5.914964e-02 -6.459673e-13 1.532487e-03
5.604682e-02 -6.633823e-13 6.453820e-04
5.386488e-02 -5.160294e-13 -6.042102e-05
5.233954e-02 -1.416130e-13 -4.525822e-04
5.118543e-02 1.199567e-13 -2.915110e-04
4.973525e-02 4.108939e-13 4.171896e-04
4.764341e-02 2.090584e-13 1.237995e-03
4.433176e-02 1.609295e-13 3.005093e-03
3.980453e-02 -7.792491e-14 3.433514e-03
3.392076e-02 -1.854900e-14 7.665040e-03
2.600335e-02 -2.205121e-13 8.384534e-03
1.638303e-02 6.079362e-14 2.313002e-02
0.000000e+00 -2.657541e-13 4.245664e-02
0.000000e+00 2.571238e-14 -2.676449e-02
1.289989e-02 3.514591e-14 -2.346660e-02
2.711678e-02 5.052493e-14 -1.906924e-02
4.022589e-02 1.193463e-13 -1.663094e-02
5.207107e-02 1.425159e-13 -1.449678e-02
6.236137e-02 2.918386e-13 -1.270640e-02
7.087393e-02 2.871747e-13 -1.086632e-02
7.737059e-02 3.081984e-13 -9.123308e-03
8.194737e-02 3.248130e-13 -7.540587e-03
8.494825e-02 2.816477e-13 -6.309085e-03
8.685349e-02 2.707719e-13 -5.483273e-03
8.811708e-02 1.806039e-13 -5.083430e-03
8.911582e-02 2.249780e-13 -5.038631e-03
9.008453e-02 1.224702e-13 -5.235093e-03
9.122899e-02 1.077150e-13 -5.486382e-03
9.264968e-02 1.423647e-13 -5.580442e-03
9.414313e-02 1.791638e-14 -5.329801e-03
9.533088e-02 -1.473331e-15 -4.676117e-03
9.581651e-02 -4.048629e-14 -3.671181e-03
9.528273e-02 -1.567701e-13 -2.430018e-03
9.357847e-02 3.573547e-14 -1.103076e-03
9.074577e-02 -2.229752e-14 1.837271e-04
8.697278e-02 1.865620e-13 1.325172e-03
8.248595e-02 1.600227e-14 2.240627e-03
7.756107e-02 1.090764e-13 2.837942e-03
7.246342e-02 1.292085e-13 3.056326e-03
6.753482e-02 -4.052364e-14 2.874615e-03
6.301583e-02 -4.469879e-14 2.329631e-03
5.914964e-02 -2.413186e-13 1.532487e-03
5.604682e-02 -3.953060e-13 6.453820e-04
5.386488e-02 -6.216191e-13 -6.042102e-05
5.233954e-02 -6.016199e-13 -4.525822e-04
5.118543e-02 -4.881021e-13 -2.915110e-04
4.973525e-02 -7.010227e-14 4.171896e-04
4.764341e-02 -3.271548e-14 1.237995e-03
4.433176e-02 1.059658e-13 3.005093e-03
3.980453e-02 -1.117111e-13 3.433514e-03
3.392076e-02 2.280675e-14 7.665040e-03
2.600335e-02 -2.311212e-13 8.384534e-03
1.638303e-02 1.348119e-13 2.313002e-02
0.000000e+00 -2.953385e-13 4.245664e-02
0.000000e+00 -2.410416e-15 -2.676449e-02
1.289989e-02 1.786661e-14 -2.346660e-02
2.711678e-02 4.127142e-14 -1.906924e-02
4.022589e-02 7.165187e-14 -1.663094e-02
5.207107e-02 7.066579e-14 -1.449678e-02
6.236137e-02 1.485452e-13 -1.270640e-02
7.087393e-02 1.035349e-13 -1.086632e-02
7.737059e-02 1.151469e-13 -9.123308e-03
8.194737e-02 1.416800e-13 -7.540587e-03
8.494825e-02 1.309157e-13 -6.309085e-03
8.685349e-02 1.414541e-13 -5.483273e-03
8.811708e-02 9.305626e-14 -5.083430e-03
8.911582e-02 1.515744e-13 -5.038631e-03
9.008453e-02 7.437510e-14 -5.235093e-03
9.122899e-02 7.355876e-14 -5.486382e-03
9.264968e-02 1.132987e-13 -5.580442e-03
9.414313e-02 8.902742e-15 -5.329801e-03
9.533088e-02 3.142753e-16 -4.676117e-03
9.581651e-02 -2.521479e-14 -3.671181e-03
9.528273e-02 -1.434775e-13 -2.430018e-03
9.357847e-02 1.167162e-14 -1.103076e-03
9.074577e-02 -6.125434e-14 1.837271e-04
8.697278e-02 1.543615e-13 1.325172e-03
8.248595e-02 -7.119282e-15 2.240627e-03
7.756107e-02 8.130369e-14 2.837942e-03
7.246342e-02 6.291351e-14 3.056326e-03
6.753482e-02 -1.001839e-13 2.874615e-03
6.301583e-02 -1.420534e-13 2.329631e-03
5.914964e-02 -2.758351e-13 1.532487e-03
5.604682e-02 -3.985846e-13 6.453820e-04
5.386488e-02 -4.811370e-13 -6.042102e-05
5.233954e-02 -4.079243e-13 -4.525822e-04
5.118543e-02 -3.072011e-13 -2.915110e-04
4.973525e-02 -1.857246e-14 4.171896e-04
4.764341e-02 -3.713394e-14 1.237995e-03
4.433176e-02 8.190302e-14 3.005093e-03
3.980453e-02 -8.293090e-14 3.433514e-03
3.392076e-02 1.914480e-14 7.665040e-03
2.600335e-02 -1.567637e-13 8.384534e-03
1.638303e-02 9.994644e-14 2.313002e-02
0.000000e+00 -2.020269e-13 4.245664e-02
0.000000e+00 -1.690906e-14 -2.676449e-02
1.289989e-02 -1.489275e-14 -2.346660e-02
2.711678e-02 -4.679607e-15 -1.906924e-02
4.022589e-02 2.165305e-14 -1.663094e-02
5.207107e-02 4.962522e-15 -1.449678e-02
6.236137e-02 5.103528e-14 -1.270640e-02
7.087393e-02 5.471961e-15 -1.086632e-02
7.737059e-02 2.107225e-14 -9.123308e-03
8.194737e-02 3.949599e-14 -7.540587e-03
8.494825e-02 4.531245e-14 -6.309085e-03