# vtk DataFile Version 3.0
vtk output
ASCII
DATASET UNSTRUCTURED_GRID
POINTS 11767 float
0.000000e+00 0.000000e+00 0.000000e+00
1.460000e-02 0.000000e+00 0.000000e+00
2.920000e-02 0.000000e+00 0.000000e+00
4.380000e-02 0.000000e+00 0.000000e+00
5.840000e-02 0.000000e+00 0.000000e+00
7.300000e-02 0.000000e+00 0.000000e+00
8.760000e-02 0.000000e+00 0.000000e+00
1.022000e-01 0.000000e+00 0.000000e+00
1.168000e-01 0.000000e+00 0.000000e+00
1.314000e-01 0.000000e+00 0.000000e+00
1.460000e-01 0.000000e+00 0.000000e+00
1.606000e-01 0.000000e+00 0.000000e+00
1.752000e-01 0.000000e+00 0.000000e+00
1.898000e-01 0.000000e+00 0.000000e+00
2.044000e-01 0.000000e+00 0.000000e+00
2.190000e-01 0.000000e+00 0.000000e+00
2.336000e-01 0.000000e+00 0.000000e+00
2.482000e-01 0.000000e+00 0.000000e+00
2.628000e-01 0.000000e+00 0.000000e+00
2.774000e-01 0.000000e+00 0.000000e+00
2.920000e-01 0.000000e+00 0.000000e+00
3.066000e-01 0.000000e+00 0.000000e+00
3.212000e-01 0.000000e+00 0.000000e+00
3.358000e-01 0.000000e+00 0.000000e+00
3.504000e-01 0.000000e+00 0.000000e+00
3.650000e-01 0.000000e+00 0.000000e+00
3.796000e-01 0.000000e+00 0.000000e+00
3.942000e-01 0.000000e+00 0.000000e+00
4.088000e-01 0.000000e+00 0.000000e+00
4.234000e-01 0.000000e+00 0.000000e+00
4.380000e-01 0.000000e+00 0.000000e+00
4.526000e-01 0.000000e+00 0.000000e+00
4.672000e-01 0.000000e+00 0.000000e+00
4.818000e-01 0.000000e+00 0.000000e+00
4.964000e-01 0.000000e+00 0.000000e+00
5.110000e-01 0.000000e+00 0.000000e+00
5.256000e-01 0.000000e+00 0.000000e+00
5.402000e-01 0.000000e+00 0.000000e+00
5.548000e-01 0.000000e+00 0.000000e+00
5.694000e-01 0.000000e+00 0.000000e+00
5.840000e-01 0.000000e+00 0.000000e+00
0.000000e+00 1.460000e-02 0.000000e+00
1.460000e-02 1.460000e-02 0.000000e+00
2.920000e-02 1.460000e-02 0.000000e+00
4.380000e-02 1.460000e-02 0.000000e+00
5.840000e-02 1.460000e-02 0.000000e+00
7.300000e-02 1.460000e-02 0.000000e+00
8.760000e-02 1.460000e-02 0.000000e+00
1.022000e-01 1.460000e-02 0.000000e+00
1.168000e-01 1.460000e-02 0.000000e+00
1.314000e-01 1.460000e-02 0.000000e+00
1.460000e-01 1.460000e-02 0.000000e+00
1.606000e-01 1.460000e-02 0.000000e+00
1.752000e-01 1.460000e-02 0.000000e+00
1.898000e-01 1.460000e-02 0.000000e+00
2.044000e-01 1.460000e-02 0.000000e+00
2.190000e-01 1.460000e-02 0.000000e+00
2.336000e-01 1.460000e-02 0.000000e+00
2.482000e-01 1.460000e-02 0.000000e+00
2.628000e-01 1.460000e-02 0.000000e+00
2.774000e-01 1.460000e-02 0.000000e+00
2.920000e-01 1.460000e-02 0.000000e+00
3.066000e-01 1.460000e-02 0.000000e+00
3.212000e-01 1.460000e-02 0.000000e+00
3.358000e-01 1.460000e-02 0.000000e+00
3.504000e-01 1.460000e-02 0.000000e+00
3.650000e-01 1.460000e-02 0.000000e+00
3.796000e-01 1.460000e-02 0.000000e+00
3.942000e-01 1.460000e-02 0.000000e+00
4.088000e-01 1.460000e-02 0.000000e+00
4.234000e-01 1.460000e-02 0.000000e+00
4.380000e-01 1.460000e-02 0.000000e+00
4.526000e-01 1.460000e-02 0.000000e+00
4.672000e-01 1.460000e-02 0.000000e+00
4.818000e-01 1.460000e-02 0.000000e+00
4.964000e-01 1.460000e-02 0.000000e+00
5.110000e-01 1.460000e-02 0.000000e+00
5.256000e-01 1.460000e-02 0.000000e+00
5.402000e-01 1.460000e-02 0.000000e+00
5.548000e-01 1.460000e-02 0.000000e+00
5.694000e-01 1.460000e-02 0.000000e+00
5.840000e-01 1.460000e-02 0.000000e+00
0.000000e+00 2.920000e-02 0.000000e+00
1.460000e-02 2.920000e-02 0.000000e+00
2.920000e-02 2.920000e-02 0.000000e+00
4.380000e-02 2.920000e-02 0.000000e+00
5.840000e-02 2.920000e-02 0.000000e+00
7.300000e-02 2.920000e-02 0.000000e+00
8.760000e-02 2.920000e-02 0.000000e+00
1.022000e-01 2.920000e-02 0.000000e+00
1.168000e-01 2.920000e-02 0.000000e+00
1.314000e-01 2.920000e-02 0.000000e+00
1.460000e-01 2.920000e-02 0.000000e+00
1.606000e-01 2.920000e-02 0.000000e+00
1.752000e-01 2.920000e-02 0.000000e+00
1.898000e-01 2.920000e-02 0.000000e+00
2.044000e-01 2.920000e-02 0.000000e+00
2.190000e-01 2.920000e-02 0.000000e+00
2.336000e-01 2.920000e-02 0.000000e+00
2.482000e-01 2.920000e-02 0.000000e+00
2.628000e-01 2.920000e-02 0.000000e+00
2.774000e-01 2.920000e-02 0.000000e+00
2.920000e-01 2.920000e-02 0.000000e+00
3.066000e-01 2.920000e-02 0.000000e+00
3.212000e-01 2.920000e-02 0.000000e+00
3.358000e-01 2.920000e-02 0.000000e+00
3.504000e-01 2.920000e-02 0.000000e+00
3.650000e-01 2.920000e-02 0.000000e+00
3.796000e-01 2.920000e-02 0.000000e+00
3.942000e-01 2.920000e-02 0.000000e+00
4.088000e-01 2.920000e-02 0.000000e+00
4.234000e-01 2.920000e-02 0.000000e+00
4.380000e-01 2.920000e-02 0.000000e+00
4.526000e-01 2.920000e-02 0.000000e+00
4.672000e-01 2.920000e-02 0.000000e+00
4.818000e-01 2.920000e-02 0.000000e+00
4.964000e-01 2.920000e-02 0.000000e+00
5.110000e-01 2.920000e-02 0.000000e+00
5.256000e-01 2.920000e-02 0.000000e+00
5.402000e-01 2.920000e-02 0.000000e+00
5.548000e-01 2.920000e-02 0.000000e+00
5.694000e-01 2.920000e-02 0.000000e+00
5.840000e-01 2.920000e-02 0.000000e+00
0.000000e+00 4.380000e-02 0.000000e+00
1.460000e-02 4.380000e-02 0.000000e+00
2.920000e-02 4.380000e-02 0.000000e+00
4.380000e-02 4.380000e-02 0.000000e+00
5.840000e-02 4.380000e-02 0.000000e+00
7.300000e-02 4.380000e-02 0.000000e+00
8.760000e-02 4.380000e-02 0.000000e+00
1.022000e-01 4.380000e-02 0.000000e+00
1.168000e-01 4.380000e-02 0.000000e+00
1.314000e-01 4.380000e-02 0.000000e+00
1.460000e-01 4.380000e-02 0.000000e+00
1.606000e-01 4.380000e-02 0.000000e+00
1.752000e-01 4.380000e-02 0.000000e+00
1.898000e-01 4.380000e-02 0.000000e+00
2.044000e-01 4.380000e-02 0.000000e+00
2.190000e-01 4.380000e-02 0.000000e+00
2.336000e-01 4.380000e-02 0.000000e+00
2.482000e-01 4.380000e-02 0.000000e+00
2.628000e-01 4.380000e-02 0.000000e+00
2.774000e-01 4.380000e-02 0.000000e+00
2.920000e-01 4.380000e-02 0.000000e+00
3.066000e-01 4.380000e-02 0.000000e+00
3.212000e-01 4.380000e-02 0.000000e+00
3.358000e-01 4.380000e-02 0.000000e+00
3.504000e-01 4.380000e-02 0.000000e+00
3.650000e-01 4.380000e-02 0.000000e+00
3.796000e-01 4.380000e-02 0.000000e+00
3.942000e-01 4.380000e-02 0.000000e+00
4.088000e-01 4.380000e-02 0.000000e+00
4.234000e-01 4.380000e-02 0.000000e+00
4.380000e-01 4.380000e-02 0.000000e+00
4.526000e-01 4.380000e-02 0.000000e+00
4.672000e-01 4.380000e-02 0.000000e+00
4.818000e-01 4.380000e-02 0.000000e+00
4.964000e-01 4.380000e-02 0.000000e+00
5.110000e-01 4.380000e-02 0.000000e+00
5.256000e-01 4.380000e-02 0.000000e+00
5.402000e-01 4.380000e-02 0.000000e+00
5.548000e-01 4.380000e-02 0.000000e+00
5.694000e-01 4.380000e-02 0.000000e+00
5.840000e-01 4.380000e-02 0.000000e+00
0.000000e+00 5.840000e-02 0.000000e+00
1.460000e-02 5.840000e-02 0.000000e+00
2.920000e-02 5.840000e-02 0.000000e+00
4.380000e-02 5.840000e-02 0.000000e+00
5.840000e-02 5.840000e-02 0.000000e+00
7.300000e-02 5.840000e-02 0.000000e+00
8.760000e-02 5.840000e-02 0.000000e+00
1.022000e-01 5.840000e-02 0.000000e+00
1.168000e-01 5.840000e-02 0.000000e+00
1.314000e-01 5.840000e-02 0.000000e+00
1.460000e-01 5.840000e-02 0.000000e+00
1.606000e-01 5.840000e-02 0.000000e+00
1.752000e-01 5.840000e-02 0.000000e+00
1.898000e-01 5.840000e-02 0.000000e+00
2.044000e-01 5.840000e-02 0.000000e+00
2.190000e-01 5.840000e-02 0.000000e+00
2.336000e-01 5.840000e-02 0.000000e+00
2.482000e-01 5.840000e-02 0.000000e+00
2.628000e-01 5.840000e-02 0.000000e+00
2.774000e-01 5.840000e-02 0.000000e+00
2.920000e-01 5.840000e-02 0.000000e+00
3.066000e-01 5.840000e-02 0.000000e+00
3.212000e-01 5.840000e-02 0.000000e+00
3.358000e-01 5.840000e-02 0.000000e+00
3.504000e-01 5.840000e-02 0.000000e+00
3.650000e-01 5.840000e-02 0.000000e+00
3.796000e-01 5.840000e-02 0.000000e+00
3.942000e-01 5.840000e-02 0.000000e+00
4.088000e-01 5.840000e-02 0.000000e+00
4.234000e-01 5.840000e-02 0.000000e+00
4.380000e-01 5.840000e-02 0.000000e+00
4.526000e-01 5.840000e-02 0.000000e+00
4.672000e-01 5.840000e-02 0.000000e+00
4.818000e-01 5.840000e-02 0.000000e+00
4.964000e-01 5.840000e-02 0.000000e+00
5.110000e-01 5.840000e-02 0.000000e+00
5.256000e-01 5.840000e-02 0.000000e+00
5.402000e-01 5.840000e-02 0.000000e+00
5.548000e-01 5.840000e-02 0.000000e+00
5.694000e-01 5.840000e-02 0.000000e+00
5.840000e-01 5.840000e-02 0.000000e+00
0.000000e+00 7.300000e-02 0.000000e+00
1.460000e-02 7.300000e-02 0.000000e+00
2.920000e-02 7.300000e-02 0.000000e+00
4.380000e-02 7.300000e-02 0.000000e+00
5.840000e-02 7.300000e-02 0.000000e+00
7.300000e-02 7.300000e-02 0.000000e+00
8.760000e-02 7.300000e-02 0.000000e+00
1.022000e-01 7.300000e-02 0.000000e+00
1.168000e-01 7.300000e-02 0.000000e+00
1.314000e-01 7.300000e-02 0.000000e+00
1.460000e-01 7.300000e-02 0.000000e+00
1.606000e-01 7.300000e-02 0.000000e+00
1.752000e-01 7.300000e-02 0.000000e+00
1.898000e-01 7.300000e-02 0.000000e+00
2.044000e-01 7.300000e-02 0.000000e+00
2.190000e-01 7.300000e-02 0.000000e+00
2.336000e-01 7.300000e-02 0.000000e+00
2.482000e-01 7.300000e-02 0.000000e+00
2.628000e-01 7.300000e-02 0.000000e+00
2.774000e-01 7.300000e-02 0.000000e+00
2.920000e-01 7.300000e-02 0.000000e+00
3.066000e-01 7.300000e-02 0.000000e+00
3.212000e-01 7.300000e-02 0.000000e+00
3.358000e-01 7.300000e-02 0.000000e+00
3.504000e-01 7.300000e-02 0.000000e+00
3.650000e-01 7.300000e-02 0.000000e+00
3.796000e-01 7.300000e-02 0.000000e+00
3.942000e-01 7.300000e-02 0.000000e+00
4.088000e-01 7.300000e-02 0.000000e+00
4.234000e-01 7.300000e-02 0.000000e+00
4.380000e-01 7.300000e-02 0.000000e+00
4.526000e-01 7.300000e-02 0.000000e+00
4.672000e-01 7.300000e-02 0.000000e+00
4.818000e-01 7.300000e-02 0.000000e+00
4.964000e-01 7.300000e-02 0.000000e+00
5.110000e-01 7.300000e-02 0.000000e+00
5.256000e-01 7.300000e-02 0.000000e+00
5.402000e-01 7.300000e-02 0.000000e+00
5.548000e-01 7.300000e-02 0.000000e+00
5.694000e-01 7.300000e-02 0.000000e+00
5.840000e-01 7.300000e-02 0.000000e+00
0.000000e+00 8.760000e-02 0.000000e+00
1.460000e-02 8.760000e-02 0.000000e+00
2.920000e-02 8.760000e-02 0.000000e+00
4.380000e-02 8.760000e-02 0.000000e+00
5.840000e-02 8.760000e-02 0.000000e+00
7.300000e-02 8.760000e-02 0.000000e+00
8.760000e-02 8.760000e-02 0.000000e+00
1.022000e-01 8.760000e-02 0.000000e+00
[...]
POINT_DATA 11767
VECTORS Velocity float
0.000000e+00 0.000000e+00 0.000000e+00
2.106545e-02 0.000000e+00 0.000000e+00
3.970957e-02 0.000000e+00 0.000000e+00
5.914369e-02 0.000000e+00 0.000000e+00
7.800089e-02 0.000000e+00 0.000000e+00
9.693649e-02 0.000000e+00 0.000000e+00
1.165332e-01 0.000000e+00 0.000000e+00
1.375518e-01 0.000000e+00 0.000000e+00
1.602147e-01 0.000000e+00 0.000000e+00
1.844605e-01 0.000000e+00 0.000000e+00
2.096972e-01 0.000000e+00 0.000000e+00
2.350092e-01 0.000000e+00 0.000000e+00
2.592974e-01 0.000000e+00 0.000000e+00
2.815019e-01 0.000000e+00 0.000000e+00
3.006735e-01 0.000000e+00 0.000000e+00
3.160509e-01 0.000000e+00 0.000000e+00
3.271005e-01 0.000000e+00 0.000000e+00
3.335111e-01 0.000000e+00 0.000000e+00
3.351617e-01 0.000000e+00 0.000000e+00
3.321416e-01 0.000000e+00 0.000000e+00
3.247812e-01 0.000000e+00 0.000000e+00
3.136640e-01 0.000000e+00 0.000000e+00
2.995094e-01 0.000000e+00 0.000000e+00
2.830596e-01 0.000000e+00 0.000000e+00
2.650642e-01 0.000000e+00 0.000000e+00
2.464052e-01 0.000000e+00 0.000000e+00
2.280843e-01 0.000000e+00 0.000000e+00
2.111556e-01 0.000000e+00 0.000000e+00
1.964026e-01 0.000000e+00 0.000000e+00
1.840498e-01 0.000000e+00 0.000000e+00
1.735524e-01 0.000000e+00 0.000000e+00
1.639170e-01 0.000000e+00 0.000000e+00
1.539872e-01 0.000000e+00 0.000000e+00
1.425838e-01 0.000000e+00 0.000000e+00
1.289497e-01 0.000000e+00 0.000000e+00
1.127762e-01 0.000000e+00 0.000000e+00
9.402135e-02 0.000000e+00 0.000000e+00
7.510760e-02 0.000000e+00 0.000000e+00
5.379755e-02 0.000000e+00 0.000000e+00
3.517791e-02 0.000000e+00 0.000000e+00
0.000000e+00 0.000000e+00 0.000000e+00
0.000000e+00 -8.961625e-14 0.000000e+00
2.106545e-02 1.203698e-13 0.000000e+00
3.970957e-02 -5.423528e-14 0.000000e+00
5.914369e-02 4.965804e-14 0.000000e+00
7.800089e-02 8.432460e-15 0.000000e+00
9.693649e-02 -2.154748e-14 0.000000e+00
1.165332e-01 4.722690e-14 0.000000e+00
1.375518e-01 -3.858111e-14 0.000000e+00
1.602147e-01 7.040353e-15 0.000000e+00
1.844605e-01 -3.871739e-15 0.000000e+00
2.096972e-01 3.140982e-14 0.000000e+00
2.350092e-01 -3.415290e-14 0.000000e+00
2.592974e-01 1.675932e-14 0.000000e+00
2.815019e-01 -2.509934e-14 0.000000e+00
3.006735e-01 -4.038529e-15 0.000000e+00
3.160509e-01 2.594095e-15 0.000000e+00
3.271005e-01 -5.821014e-16 0.000000e+00
3.335111e-01 1.613171e-15 0.000000e+00
3.351617e-01 -2.130451e-14 0.000000e+00
3.321416e-01 1.915489e-14 0.000000e+00
3.247812e-01 -3.022556e-14 0.000000e+00
3.136640e-01 3.516054e-14 0.000000e+00
2.995094e-01 -4.262761e-14 0.000000e+00
2.830596e-01 -2.091674e-14 0.000000e+00
2.650642e-01 -4.666435e-14 0.000000e+00
2.464052e-01 1.621458e-14 0.000000e+00
2.280843e-01 -3.006618e-14 0.000000e+00
2.111556e-01 -1.230049e-14 0.000000e+00
1.964026e-01 -3.070043e-14 0.000000e+00
1.840498e-01 -1.304441e-14 0.000000e+00
1.735524e-01 -7.397881e-14 0.000000e+00
1.639170e-01 -5.693630e-14 0.000000e+00
1.539872e-01 -2.309701e-14 0.000000e+00
1.425838e-01 -7.253015e-15 0.000000e+00
1.289497e-01 -8.495218e-14 0.000000e+00
1.127762e-01 2.067425e-14 0.000000e+00
9.402135e-02 -5.538136e-14 0.000000e+00
7.510760e-02 4.016024e-14 0.000000e+00
5.379755e-02 -1.323365e-13 0.000000e+00
3.517791e-02 3.334825e-14 0.000000e+00
0.000000e+00 -3.749782e-14 0.000000e+00
0.000000e+00 -9.668918e-14 0.000000e+00
2.106545e-02 1.171486e-13 0.000000e+00
3.970957e-02 -8.092342e-14 0.000000e+00
5.914369e-02 -8.397080e-15 0.000000e+00
7.800089e-02 5.002218e-14 0.000000e+00
9.693649e-02 -2.073347e-14 0.000000e+00
1.165332e-01 4.162016e-14 0.000000e+00
1.375518e-01 -6.243364e-14 0.000000e+00
1.602147e-01 3.917304e-14 0.000000e+00
1.844605e-01 6.891587e-15 0.000000e+00
2.096972e-01 2.635563e-14 0.000000e+00
2.350092e-01 -4.110989e-14 0.000000e+00
2.592974e-01 1.706113e-14 0.000000e+00
2.815019e-01 -2.724507e-14 0.000000e+00
3.006735e-01 -2.909497e-14 0.000000e+00
3.160509e-01 1.193051e-15 0.000000e+00
3.271005e-01 1.524514e-14 0.000000e+00
3.335111e-01 4.578730e-15 0.000000e+00
3.351617e-01 -2.000913e-14 0.000000e+00
3.321416e-01 2.534198e-14 0.000000e+00
3.247812e-01 -1.262315e-14 0.000000e+00
3.136640e-01 5.094074e-14 0.000000e+00
2.995094e-01 -3.695834e-14 0.000000e+00
2.830596e-01 -1.943848e-14 0.000000e+00
2.650642e-01 -3.705454e-14 0.000000e+00
2.464052e-01 -6.622660e-15 0.000000e+00
2.280843e-01 2.152427e-14 0.000000e+00
2.111556e-01 -2.341891e-14 0.000000e+00
1.964026e-01 -6.713619e-14 0.000000e+00
1.840498e-01 5.546812e-14 0.000000e+00
1.735524e-01 -1.412175e-13 0.000000e+00
1.639170e-01 -7.653663e-14 0.000000e+00
1.539872e-01 -6.524196e-14 0.000000e+00
1.425838e-01 -7.421618e-14 0.000000e+00
1.289497e-01 -8.465863e-14 0.000000e+00
1.127762e-01 -1.856739e-14 0.000000e+00
9.402135e-02 8.955958e-15 0.000000e+00
7.510760e-02 3.629056e-14 0.000000e+00
5.379755e-02 -9.871686e-14 0.000000e+00
3.517791e-02 1.351473e-13 0.000000e+00
0.000000e+00 -2.274762e-13 0.000000e+00
0.000000e+00 9.778233e-14 0.000000e+00
2.106545e-02 -8.449284e-14 0.000000e+00
3.970957e-02 9.646857e-14 0.000000e+00
5.914369e-02 -2.055828e-14 0.000000e+00
7.800089e-02 -2.772657e-14 0.000000e+00
9.693649e-02 9.103524e-15 0.000000e+00
1.165332e-01 4.365023e-15 0.000000e+00
1.375518e-01 -2.322679e-15 0.000000e+00
1.602147e-01 1.500049e-14 0.000000e+00
1.844605e-01 -9.122976e-15 0.000000e+00
2.096972e-01 2.340511e-14 0.000000e+00
2.350092e-01 -5.881861e-14 0.000000e+00
2.592974e-01 3.034904e-14 0.000000e+00
2.815019e-01 -2.193256e-14 0.000000e+00
3.006735e-01 -2.596033e-14 0.000000e+00
3.160509e-01 1.249998e-14 0.000000e+00
3.271005e-01 1.249687e-14 0.000000e+00
3.335111e-01 8.294712e-15 0.000000e+00
3.351617e-01 -8.121186e-15 0.000000e+00
3.321416e-01 2.399820e-14 0.000000e+00
3.247812e-01 -1.760212e-14 0.000000e+00
3.136640e-01 6.666273e-14 0.000000e+00
2.995094e-01 -5.433113e-14 0.000000e+00
2.830596e-01 -1.959071e-15 0.000000e+00
2.650642e-01 -5.052621e-14 0.000000e+00
2.464052e-01 1.929729e-14 0.000000e+00
2.280843e-01 7.661829e-15 0.000000e+00
2.111556e-01 5.139092e-15 0.000000e+00
1.964026e-01 -1.254022e-13 0.000000e+00
1.840498e-01 1.442148e-13 0.000000e+00
1.735524e-01 -2.056637e-13 0.000000e+00
1.639170e-01 -3.193890e-14 0.000000e+00
1.539872e-01 -1.031246e-13 0.000000e+00
1.425838e-01 -4.821457e-14 0.000000e+00
1.289497e-01 -8.170093e-14 0.000000e+00
1.127762e-01 2.219364e-15 0.000000e+00
9.402135e-02 -2.373262e-15 0.000000e+00
7.510760e-02 4.174887e-14 0.000000e+00
5.379755e-02 -1.131561e-13 0.000000e+00
3.517791e-02 8.454899e-14 0.000000e+00
0.000000e+00 -2.443191e-13 0.000000e+00
0.000000e+00 1.811796e-13 0.000000e+00
2.106545e-02 -8.819937e-14 0.000000e+00
3.970957e-02 2.300160e-14 0.000000e+00
5.914369e-02 4.324554e-14 0.000000e+00
7.800089e-02 -4.028574e-14 0.000000e+00
9.693649e-02 3.878793e-14 0.000000e+00
1.165332e-01 -2.954967e-14 0.000000e+00
1.375518e-01 2.019285e-14 0.000000e+00
1.602147e-01 1.744487e-14 0.000000e+00
1.844605e-01 -9.129551e-15 0.000000e+00
2.096972e-01 1.799929e-14 0.000000e+00
2.350092e-01 -2.978748e-14 0.000000e+00
2.592974e-01 2.680030e-14 0.000000e+00
2.815019e-01 -9.997413e-15 0.000000e+00
3.006735e-01 -3.563624e-14 0.000000e+00
3.160509e-01 1.782584e-14 0.000000e+00
3.271005e-01 -6.601856e-15 0.000000e+00
3.335111e-01 1.112291e-14 0.000000e+00
3.351617e-01 -1.532424e-15 0.000000e+00
3.321416e-01 1.225930e-14 0.000000e+00
3.247812e-01 -2.309726e-15 0.000000e+00
3.136640e-01 6.024559e-14 0.000000e+00
2.995094e-01 -5.229572e-14 0.000000e+00
2.830596e-01 7.054875e-15 0.000000e+00
2.650642e-01 -3.884054e-14 0.000000e+00
2.464052e-01 9.008571e-15 0.000000e+00
2.280843e-01 3.580608e-14 0.000000e+00
2.111556e-01 -6.921942e-15 0.000000e+00
1.964026e-01 -9.458599e-14 0.000000e+00
1.840498e-01 9.182994e-14 0.000000e+00
1.735524e-01 -1.552258e-13 0.000000e+00
1.639170e-01 -7.545809e-14 0.000000e+00
1.539872e-01 -1.767417e-14 0.000000e+00
1.425838e-01 -6.063235e-14 0.000000e+00
1.289497e-01 -4.858682e-14 0.000000e+00
1.127762e-01 1.146719e-14 0.000000e+00
9.402135e-02 -3.904716e-14 0.000000e+00
7.510760e-02 3.462263e-14 0.000000e+00
5.379755e-02 -6.440651e-14 0.000000e+00
3.517791e-02 8.136033e-14 0.000000e+00
0.000000e+00 -5.196174e-14 0.000000e+00
0.000000e+00 -2.577957e-13 0.000000e+00
2.106545e-02 1.792857e-13 0.000000e+00
3.970957e-02 -1.256872e-13 0.000000e+00
5.914369e-02 2.207020e-14 0.000000e+00
7.800089e-02 1.902487e-14 0.000000e+00
9.693649e-02 -1.279302e-15 0.000000e+00
1.165332e-01 -1.075651e-14 0.000000e+00
1.375518e-01 2.370788e-14 0.000000e+00
1.602147e-01 1.374038e-14 0.000000e+00
1.844605e-01 -1.066429e-14 0.000000e+00
2.096972e-01 -1.670776e-15 0.000000e+00
2.350092e-01 -2.330424e-14 0.000000e+00
2.592974e-01 3.392377e-14 0.000000e+00
2.815019e-01 -9.029947e-15 0.000000e+00
3.006735e-01 -3.498436e-14 0.000000e+00
3.160509e-01 7.918050e-15 0.000000e+00
3.271005e-01 1.304624e-16 0.000000e+00
3.335111e-01 -9.322240e-15 0.000000e+00
3.351617e-01 -2.341170e-15 0.000000e+00
3.321416e-01 -1.139845e-14 0.000000e+00
3.247812e-01 -2.734580e-15 0.000000e+00
3.136640e-01 2.018190e-14 0.000000e+00
2.995094e-01 -2.925592e-14 0.000000e+00
2.830596e-01 -1.756405e-14 0.000000e+00
2.650642e-01 9.121254e-15 0.000000e+00
2.464052e-01 -1.875300e-14 0.000000e+00
2.280843e-01 3.530544e-14 0.000000e+00
2.111556e-01 7.550479e-15 0.000000e+00
1.964026e-01 -7.169677e-14 0.000000e+00
1.840498e-01 4.258767e-14 0.000000e+00
1.735524e-01 -7.278957e-14 0.000000e+00
1.639170e-01 -6.601692e-14 0.000000e+00
1.539872e-01 1.887900e-14 0.000000e+00
1.425838e-01 -3.757249e-14 0.000000e+00
1.289497e-01 -1.781664e-14 0.000000e+00
1.127762e-01 4.154612e-14 0.000000e+00
9.402135e-02 -9.345575e-14 0.000000e+00
7.510760e-02 5.026304e-14 0.000000e+00
5.379755e-02 -1.563712e-13 0.000000e+00
3.517791e-02 2.162817e-13 0.000000e+00
0.000000e+00 -1.605346e-13 0.000000e+00
0.000000e+00 0.000000e+00 0.000000e+00
2.106545e-02 0.000000e+00 0.000000e+00
3.970957e-02 0.000000e+00 0.000000e+00
5.914369e-02 0.000000e+00 0.000000e+00
7.800089e-02 0.000000e+00 0.000000e+00
9.693649e-02 0.000000e+00 0.000000e+00
1.165332e-01 0.000000e+00 0.000000e+00
1.375518e-01 0.000000e+00 0.000000e+00
1.602147e-01 0.000000e+00 0.000000e+00
1.844605e-01 0.000000e+00 0.000000e+00
2.096972e-01 0.000000e+00 0.000000e+00
2.350092e-01 0.000000e+00 0.000000e+00
2.592974e-01 0.000000e+00 0.000000e+00
2.815019e-01 0.000000e+00 0.000000e+00
3.006735e-01 0.000000e+00 0.000000e+00
3.160509e-01 0.000000e+00 0.000000e+00
3.271005e-01 0.000000e+00 0.000000e+00
3.335111e-01 0.000000e+00 0.000000e+00
3.351617e-01 0.000000e+00 0.000000e+00
3.321416e-01 0.000000e+00 0.000000e+00
3.247812e-01 0.000000e+00 0.000000e+00
3.136640e-01 0.000000e+00 0.000000e+00
2.995094e-01 0.000000e+00 0.000000e+00
2.830596e-01 0.000000e+00 0.000000e+00
2.650642e-01 0.000000e+00 0.000000e+00
2.464052e-01 0.000000e+00 0.000000e+00
2.280843e-01 0.000000e+00 0.000000e+00
2.111556e-01 0.000000e+00 0.000000e+00
1.964026e-01 0.000000e+00 0.000000e+00
1.840498e-01 0.000000e+00 0.000000e+00
1.735524e-01 0.000000e+00 0.000000e+00
1.639170e-01 0.000000e+00 0.000000e+00
1.539872e-01 0.000000e+00 0.000000e+00
1.425838e-01 0.000000e+00 0.000000e+00
1.289497e-01 0.000000e+00 0.000000e+00
1.127762e-01 0.000000e+00 0.000000e+00
9.402135e-02 0.000000e+00 0.000000e+00
7.510760e-02 0.000000e+00 0.000000e+00
5.379755e-02 0.000000e+00 0.000000e+00
3.517791e-02 0.000000e+00 0.000000e+00
0.000000e+00 0.000000e+00 0.000000e+00
0.000000e+00 0.000000e+00 -1.658938e-02
5.449041e-04 0.000000e+00 -1.683149e-02
8.323262e-03 0.000000e+00 -1.847210e-02
2.020476e-02 0.000000e+00 -1.972339e-02
3.442418e-02 0.000000e+00 -1.990341e-02
5.005609e-02 0.000000e+00 -2.066581e-02
6.735464e-02 0.000000e+00 -2.197772e-02
8.664152e-02 0.000000e+00 -2.378990e-02
1.082771e-01 0.000000e+00 -2.569918e-02
1.321214e-01 0.000000e+00 -2.726328e-02
1.575121e-01 0.000000e+00 -2.799078e-02
1.833533e-01 0.000000e+00 -2.762816e-02
2.084431e-01 0.000000e+00 -2.612178e-02
2.315804e-01 0.000000e+00 -2.355247e-02
2.516836e-01 0.000000e+00 -2.007377e-02
2.678615e-01 0.000000e+00 -1.590832e-02
2.794949e-01 0.000000e+00 -1.131074e-02
2.862627e-01 0.000000e+00 -6.517995e-03
2.881517e-01 0.000000e+00 -1.756565e-03
2.854169e-01 0.000000e+00 2.740616e-03
2.785781e-01 0.000000e+00 6.703157e-03
2.684374e-01 0.000000e+00 9.910754e-03
2.559546e-01 0.000000e+00 1.229986e-02
2.420213e-01 0.000000e+00 1.394132e-02
2.272887e-01 0.000000e+00 1.487304e-02
2.121801e-01 0.000000e+00 1.507221e-02
1.969445e-01 0.000000e+00 1.449864e-02
1.818168e-01 0.000000e+00 1.317816e-02
1.671829e-01 0.000000e+00 1.132721e-02
1.535632e-01 0.000000e+00 9.407513e-03
1.414054e-01 0.000000e+00 7.934441e-03
1.308634e-01 0.000000e+00 7.196715e-03
1.217039e-01 0.000000e+00 7.435750e-03
1.131447e-01 0.000000e+00 8.725641e-03
1.039676e-01 0.000000e+00 1.072040e-02
9.265517e-02 0.000000e+00 1.372806e-02
7.819273e-02 0.000000e+00 1.522349e-02
6.076005e-02 0.000000e+00 1.784686e-02
4.094396e-02 0.000000e+00 1.629974e-02
2.131223e-02 0.000000e+00 2.150600e-02
0.000000e+00 0.000000e+00 3.138165e-02
0.000000e+00 -2.018203e-14 -1.658938e-02
5.449041e-04 3.703294e-14 -1.683149e-02
8.323262e-03 -4.518825e-14 -1.847210e-02
2.020476e-02 -1.308152e-14 -1.972339e-02
3.442418e-02 -7.064734e-15 -1.990341e-02
5.005609e-02 2.204585e-14 -2.066581e-02
6.735464e-02 -6.263069e-15 -2.197772e-02
8.664152e-02 -1.679992e-14 -2.378990e-02
1.082771e-01 5.638007e-15 -2.569918e-02
1.321214e-01 1.536819e-14 -2.726328e-02
1.575121e-01 2.405259e-15 -2.799078e-02
1.833533e-01 -3.759983e-14 -2.762816e-02
2.084431e-01 1.023461e-14 -2.612178e-02
2.315804e-01 -1.708580e-14 -2.355247e-02
2.516836e-01 1.673551e-14 -2.007377e-02
2.678615e-01 -4.731044e-15 -1.590832e-02
2.794949e-01 -5.413390e-15 -1.131074e-02
2.862627e-01 9.984516e-16 -6.517995e-03
2.881517e-01 4.018575e-16 -1.756565e-03
2.854169e-01 -1.324336e-14 2.740616e-03
2.785781e-01 2.457673e-14 6.703157e-03
2.684374e-01 -4.736148e-14 9.910754e-03
2.559546e-01 1.712125e-14 1.229986e-02
2.420213e-01 3.162138e-14 1.394132e-02
2.272887e-01 -1.068922e-15 1.487304e-02
2.121801e-01 5.801113e-15 1.507221e-02
1.969445e-01 -1.178408e-13 1.449864e-02
1.818168e-01 2.636442e-14 1.317816e-02
1.671829e-01 -2.802705e-14 1.132721e-02
1.535632e-01 -7.211709e-14 9.407513e-03
1.414054e-01 2.068018e-14 7.934441e-03
1.308634e-01 2.791339e-14 7.196715e-03
1.217039e-01 -7.719883e-14 7.435750e-03
1.131447e-01 1.491832e-14 8.725641e-03
1.039676e-01 8.273740e-14 1.072040e-02
9.265517e-02 2.396845e-14 1.372806e-02
7.819273e-02 -3.634503e-14 1.522349e-02
6.076005e-02 3.408321e-14 1.784686e-02
4.094396e-02 -1.609077e-14 1.629974e-02
2.131223e-02 4.951539e-14 2.150600e-02
0.000000e+00 -2.801074e-14 3.138165e-02
0.000000e+00 7.035240e-14 -1.658938e-02
5.449041e-04 -7.363378e-14 -1.683149e-02
8.323262e-03 1.475080e-14 -1.847210e-02
2.020476e-02 -1.423287e-14 -1.972339e-02
3.442418e-02 5.359684e-14 -1.990341e-02
5.005609e-02 3.644308e-15 -2.066581e-02
6.735464e-02 -1.480863e-14 -2.197772e-02
8.664152e-02 -5.642976e-14 -2.378990e-02
1.082771e-01 3.466438e-14 -2.569918e-02
1.321214e-01 1.399521e-14 -2.726328e-02
1.575121e-01 -1.194040e-14 -2.799078e-02
1.833533e-01 -2.775806e-14 -2.762816e-02
2.084431e-01 1.408568e-14 -2.612178e-02
2.315804e-01 -1.158955e-14 -2.355247e-02
2.516836e-01 1.236670e-14 -2.007377e-02
2.678615e-01 -3.047410e-15 -1.590832e-02
2.794949e-01 3.385341e-15 -1.131074e-02
2.862627e-01 -2.452644e-15 -6.517995e-03
2.881517e-01 2.168620e-15 -1.756565e-03
2.854169e-01 -2.062374e-14 2.740616e-03
2.785781e-01 6.326105e-14 6.703157e-03
2.684374e-01 -9.023615e-14 9.910754e-03
2.559546e-01 5.520281e-14 1.229986e-02
2.420213e-01 3.417528e-14 1.394132e-02
2.272887e-01 2.639193e-14 1.487304e-02
2.121801e-01 1.210541e-14 1.507221e-02
1.969445e-01 -9.586153e-14 1.449864e-02
1.818168e-01 -1.154656e-14 1.317816e-02
1.671829e-01 5.754198e-14 1.132721e-02
1.535632e-01 -1.322020e-13 9.407513e-03
1.414054e-01 3.025238e-14 7.934441e-03
1.308634e-01 2.685159e-14 7.196715e-03
1.217039e-01 -1.110666e-13 7.435750e-03
1.131447e-01 3.795962e-14 8.725641e-03
1.039676e-01 9.109138e-14 1.072040e-02
9.265517e-02 2.880702e-14 1.372806e-02
7.819273e-02 -4.475603e-14 1.522349e-02
6.076005e-02 -1.814110e-14 1.784686e-02
4.094396e-02 -3.295233e-15 1.629974e-02
2.131223e-02 5.708820e-15 2.150600e-02
0.000000e+00 -1.922151e-14 3.138165e-02
0.000000e+00 -8.261523e-14 -1.658938e-02
5.449041e-04 1.080254e-14 -1.683149e-02
8.323262e-03 -5.866057e-14 -1.847210e-02
2.020476e-02 -5.367149e-14 -1.972339e-02
3.442418e-02 2.462096e-14 -1.990341e-02
5.005609e-02 7.936003e-15 -2.066581e-02
6.735464e-02 -4.984922e-15 -2.197772e-02
8.664152e-02 -1.957503e-14 -2.378990e-02
1.082771e-01 -2.472130e-14 -2.569918e-02
1.321214e-01 6.976519e-15 -2.726328e-02
1.575121e-01 -1.127054e-14 -2.799078e-02
1.833533e-01 -3.465422e-14 -2.762816e-02
2.084431e-01 2.180756e-14 -2.612178e-02
2.315804e-01 -1.267158e-14 -2.355247e-02
2.516836e-01 1.800522e-14 -2.007377e-02
2.678615e-01 -3.678383e-15 -1.590832e-02
2.794949e-01 -2.325352e-15 -1.131074e-02
2.862627e-01 3.947750e-15 -6.517995e-03
2.881517e-01 4.877421e-15 -1.756565e-03
2.854169e-01 -1.089818e-14 2.740616e-03
2.785781e-01 6.691187e-14 6.703157e-03
2.684374e-01 -7.775398e-14 9.910754e-03
2.559546e-01 5.682369e-14 1.229986e-02
2.420213e-01 6.317208e-14 1.394132e-02
2.272887e-01 -8.725945e-15 1.487304e-02
2.121801e-01 3.669396e-14 1.507221e-02
1.969445e-01 -1.341303e-13 1.449864e-02
1.818168e-01 5.763974e-14 1.317816e-02
1.671829e-01 1.087978e-13 1.132721e-02
1.535632e-01 -8.754023e-14 9.407513e-03
1.414054e-01 2.521438e-14 7.934441e-03
1.308634e-01 7.804965e-14 7.196715e-03
1.217039e-01 -1.326547e-13 7.435750e-03
1.131447e-01 9.197748e-14 8.725641e-03
1.039676e-01 8.249794e-14 1.072040e-02
9.265517e-02 3.809351e-14 1.372806e-02
7.819273e-02 -6.403931e-14 1.522349e-02
6.076005e-02 -3.011233e-14 1.784686e-02
4.094396e-02 -2.540124e-14 1.629974e-02
2.131223e-02 5.734791e-14 2.150600e-02
0.000000e+00 -8.107491e-14 3.138165e-02
0.000000e+00 -6.842447e-14 -1.658938e-02
5.449041e-04 9.654586e-15 -1.683149e-02
8.323262e-03 -4.409776e-14 -1.847210e-02
2.020476e-02 -3.517944e-14 -1.972339e-02
3.442418e-02 -5.413060e-15 -1.990341e-02
5.005609e-02 6.581087e-14 -2.066581e-02
6.735464e-02 -3.515347e-14 -2.197772e-02
8.664152e-02 -5.119310e-16 -2.378990e-02
1.082771e-01 -3.306294e-14 -2.569918e-02
1.321214e-01 1.758658e-15 -2.726328e-02
1.575121e-01 -3.805221e-15 -2.799078e-02
1.833533e-01 -5.323501e-15 -2.762816e-02
2.084431e-01 1.175291e-14 -2.612178e-02
2.315804e-01 -1.210929e-14 -2.355247e-02
2.516836e-01 -1.424308e-15 -2.007377e-02
2.678615e-01 -1.705230e-15 -1.590832e-02
2.794949e-01 -1.325276e-14 -1.131074e-02
2.862627e-01 2.700537e-14 -6.517995e-03
2.881517e-01 1.004360e-14 -1.756565e-03
2.854169e-01 -5.943025e-15 2.740616e-03
2.785781e-01 5.429750e-14 6.703157e-03
2.684374e-01 -6.217550e-14 9.910754e-03
2.559546e-01 3.670926e-14 1.229986e-02
2.420213e-01 7.763185e-14 1.394132e-02
2.272887e-01 -2.260973e-14 1.487304e-02
2.121801e-01 3.485532e-14 1.507221e-02
1.969445e-01 -9.872265e-14 1.449864e-02
1.818168e-01 5.534805e-14 1.317816e-02
1.671829e-01 1.273261e-13 1.132721e-02
1.535632e-01 -1.031177e-13 9.407513e-03
1.414054e-01 3.651681e-14 7.934441e-03
1.308634e-01 7.744867e-14 7.196715e-03
1.217039e-01 -1.610148e-13 7.435750e-03
1.131447e-01 7.317720e-14 8.725641e-03
1.039676e-01 5.040562e-14 1.072040e-02
9.265517e-02 -1.503149e-14 1.372806e-02
7.819273e-02 -6.569143e-14 1.522349e-02
6.076005e-02 -1.604968e-14 1.784686e-02
4.094396e-02 2.387705e-14 1.629974e-02
2.131223e-02 7.810724e-14 2.150600e-02
0.000000e+00 -9.674847e-14 3.138165e-02
0.000000e+00 6.875145e-15 -1.658938e-02
5.449041e-04 -7.611372e-14 -1.683149e-02
8.323262e-03 1.191411e-14 -1.847210e-02
2.020476e-02 -1.053134e-14 -1.972339e-02
3.442418e-02 -1.198536e-14 -1.990341e-02
5.005609e-02 4.020042e-14 -2.066581e-02
6.735464e-02 -3.056554e-14 -2.197772e-02
8.664152e-02 2.152280e-15 -2.378990e-02
1.082771e-01 -1.319290e-14 -2.569918e-02
1.321214e-01 -5.709105e-16 -2.726328e-02
1.575121e-01 -5.433165e-15 -2.799078e-02