# vtk DataFile Version 3.0
vtk output
ASCII
DATASET UNSTRUCTURED_GRID
POINTS 11767 float
0.000000e+00 0.000000e+00 0.000000e+00
1.460000e-02 0.000000e+00 0.000000e+00
2.920000e-02 0.000000e+00 0.000000e+00
4.380000e-02 0.000000e+00 0.000000e+00
5.840000e-02 0.000000e+00 0.000000e+00
7.300000e-02 0.000000e+00 0.000000e+00
8.760000e-02 0.000000e+00 0.000000e+00
1.022000e-01 0.000000e+00 0.000000e+00
1.168000e-01 0.000000e+00 0.000000e+00
1.314000e-01 0.000000e+00 0.000000e+00
1.460000e-01 0.000000e+00 0.000000e+00
1.606000e-01 0.000000e+00 0.000000e+00
1.752000e-01 0.000000e+00 0.000000e+00
1.898000e-01 0.000000e+00 0.000000e+00
2.044000e-01 0.000000e+00 0.000000e+00
2.190000e-01 0.000000e+00 0.000000e+00
2.336000e-01 0.000000e+00 0.000000e+00
2.482000e-01 0.000000e+00 0.000000e+00
2.628000e-01 0.000000e+00 0.000000e+00
2.774000e-01 0.000000e+00 0.000000e+00
2.920000e-01 0.000000e+00 0.000000e+00
3.066000e-01 0.000000e+00 0.000000e+00
3.212000e-01 0.000000e+00 0.000000e+00
3.358000e-01 0.000000e+00 0.000000e+00
3.504000e-01 0.000000e+00 0.000000e+00
3.650000e-01 0.000000e+00 0.000000e+00
3.796000e-01 0.000000e+00 0.000000e+00
3.942000e-01 0.000000e+00 0.000000e+00
4.088000e-01 0.000000e+00 0.000000e+00
4.234000e-01 0.000000e+00 0.000000e+00
4.380000e-01 0.000000e+00 0.000000e+00
4.526000e-01 0.000000e+00 0.000000e+00
4.672000e-01 0.000000e+00 0.000000e+00
4.818000e-01 0.000000e+00 0.000000e+00
4.964000e-01 0.000000e+00 0.000000e+00
5.110000e-01 0.000000e+00 0.000000e+00
5.256000e-01 0.000000e+00 0.000000e+00
5.402000e-01 0.000000e+00 0.000000e+00
5.548000e-01 0.000000e+00 0.000000e+00
5.694000e-01 0.000000e+00 0.000000e+00
5.840000e-01 0.000000e+00 0.000000e+00
0.000000e+00 1.460000e-02 0.000000e+00
1.460000e-02 1.460000e-02 0.000000e+00
2.920000e-02 1.460000e-02 0.000000e+00
4.380000e-02 1.460000e-02 0.000000e+00
5.840000e-02 1.460000e-02 0.000000e+00
7.300000e-02 1.460000e-02 0.000000e+00
8.760000e-02 1.460000e-02 0.000000e+00
1.022000e-01 1.460000e-02 0.000000e+00
1.168000e-01 1.460000e-02 0.000000e+00
1.314000e-01 1.460000e-02 0.000000e+00
1.460000e-01 1.460000e-02 0.000000e+00
1.606000e-01 1.460000e-02 0.000000e+00
1.752000e-01 1.460000e-02 0.000000e+00
1.898000e-01 1.460000e-02 0.000000e+00
2.044000e-01 1.460000e-02 0.000000e+00
2.190000e-01 1.460000e-02 0.000000e+00
2.336000e-01 1.460000e-02 0.000000e+00
2.482000e-01 1.460000e-02 0.000000e+00
2.628000e-01 1.460000e-02 0.000000e+00
2.774000e-01 1.460000e-02 0.000000e+00
2.920000e-01 1.460000e-02 0.000000e+00
3.066000e-01 1.460000e-02 0.000000e+00
3.212000e-01 1.460000e-02 0.000000e+00
3.358000e-01 1.460000e-02 0.000000e+00
3.504000e-01 1.460000e-02 0.000000e+00
3.650000e-01 1.460000e-02 0.000000e+00
3.796000e-01 1.460000e-02 0.000000e+00
3.942000e-01 1.460000e-02 0.000000e+00
4.088000e-01 1.460000e-02 0.000000e+00
4.234000e-01 1.460000e-02 0.000000e+00
4.380000e-01 1.460000e-02 0.000000e+00
4.526000e-01 1.460000e-02 0.000000e+00
4.672000e-01 1.460000e-02 0.000000e+00
4.818000e-01 1.460000e-02 0.000000e+00
4.964000e-01 1.460000e-02 0.000000e+00
5.110000e-01 1.460000e-02 0.000000e+00
5.256000e-01 1.460000e-02 0.000000e+00
5.402000e-01 1.460000e-02 0.000000e+00
5.548000e-01 1.460000e-02 0.000000e+00
5.694000e-01 1.460000e-02 0.000000e+00
5.840000e-01 1.460000e-02 0.000000e+00
0.000000e+00 2.920000e-02 0.000000e+00
1.460000e-02 2.920000e-02 0.000000e+00
2.920000e-02 2.920000e-02 0.000000e+00
4.380000e-02 2.920000e-02 0.000000e+00
5.840000e-02 2.920000e-02 0.000000e+00
7.300000e-02 2.920000e-02 0.000000e+00
8.760000e-02 2.920000e-02 0.000000e+00
1.022000e-01 2.920000e-02 0.000000e+00
1.168000e-01 2.920000e-02 0.000000e+00
1.314000e-01 2.920000e-02 0.000000e+00
1.460000e-01 2.920000e-02 0.000000e+00
1.606000e-01 2.920000e-02 0.000000e+00
1.752000e-01 2.920000e-02 0.000000e+00
1.898000e-01 2.920000e-02 0.000000e+00
2.044000e-01 2.920000e-02 0.000000e+00
2.190000e-01 2.920000e-02 0.000000e+00
2.336000e-01 2.920000e-02 0.000000e+00
2.482000e-01 2.920000e-02 0.000000e+00
2.628000e-01 2.920000e-02 0.000000e+00
2.774000e-01 2.920000e-02 0.000000e+00
2.920000e-01 2.920000e-02 0.000000e+00
3.066000e-01 2.920000e-02 0.000000e+00
3.212000e-01 2.920000e-02 0.000000e+00
3.358000e-01 2.920000e-02 0.000000e+00
3.504000e-01 2.920000e-02 0.000000e+00
3.650000e-01 2.920000e-02 0.000000e+00
3.796000e-01 2.920000e-02 0.000000e+00
3.942000e-01 2.920000e-02 0.000000e+00
4.088000e-01 2.920000e-02 0.000000e+00
4.234000e-01 2.920000e-02 0.000000e+00
4.380000e-01 2.920000e-02 0.000000e+00
4.526000e-01 2.920000e-02 0.000000e+00
4.672000e-01 2.920000e-02 0.000000e+00
4.818000e-01 2.920000e-02 0.000000e+00
4.964000e-01 2.920000e-02 0.000000e+00
5.110000e-01 2.920000e-02 0.000000e+00
5.256000e-01 2.920000e-02 0.000000e+00
5.402000e-01 2.920000e-02 0.000000e+00
5.548000e-01 2.920000e-02 0.000000e+00
5.694000e-01 2.920000e-02 0.000000e+00
5.840000e-01 2.920000e-02 0.000000e+00
0.000000e+00 4.380000e-02 0.000000e+00
1.460000e-02 4.380000e-02 0.000000e+00
2.920000e-02 4.380000e-02 0.000000e+00
4.380000e-02 4.380000e-02 0.000000e+00
5.840000e-02 4.380000e-02 0.000000e+00
7.300000e-02 4.380000e-02 0.000000e+00
8.760000e-02 4.380000e-02 0.000000e+00
1.022000e-01 4.380000e-02 0.000000e+00
1.168000e-01 4.380000e-02 0.000000e+00
1.314000e-01 4.380000e-02 0.000000e+00
1.460000e-01 4.380000e-02 0.000000e+00
1.606000e-01 4.380000e-02 0.000000e+00
1.752000e-01 4.380000e-02 0.000000e+00
1.898000e-01 4.380000e-02 0.000000e+00
2.044000e-01 4.380000e-02 0.000000e+00
2.190000e-01 4.380000e-02 0.000000e+00
2.336000e-01 4.380000e-02 0.000000e+00
2.482000e-01 4.380000e-02 0.000000e+00
2.628000e-01 4.380000e-02 0.000000e+00
2.774000e-01 4.380000e-02 0.000000e+00
2.920000e-01 4.380000e-02 0.000000e+00
3.066000e-01 4.380000e-02 0.000000e+00
3.212000e-01 4.380000e-02 0.000000e+00
3.358000e-01 4.380000e-02 0.000000e+00
3.504000e-01 4.380000e-02 0.000000e+00
3.650000e-01 4.380000e-02 0.000000e+00
3.796000e-01 4.380000e-02 0.000000e+00
3.942000e-01 4.380000e-02 0.000000e+00
4.088000e-01 4.380000e-02 0.000000e+00
4.234000e-01 4.380000e-02 0.000000e+00
4.380000e-01 4.380000e-02 0.000000e+00
4.526000e-01 4.380000e-02 0.000000e+00
4.672000e-01 4.380000e-02 0.000000e+00
4.818000e-01 4.380000e-02 0.000000e+00
4.964000e-01 4.380000e-02 0.000000e+00
5.110000e-01 4.380000e-02 0.000000e+00
5.256000e-01 4.380000e-02 0.000000e+00
5.402000e-01 4.380000e-02 0.000000e+00
5.548000e-01 4.380000e-02 0.000000e+00
5.694000e-01 4.380000e-02 0.000000e+00
5.840000e-01 4.380000e-02 0.000000e+00
0.000000e+00 5.840000e-02 0.000000e+00
1.460000e-02 5.840000e-02 0.000000e+00
2.920000e-02 5.840000e-02 0.000000e+00
4.380000e-02 5.840000e-02 0.000000e+00
5.840000e-02 5.840000e-02 0.000000e+00
7.300000e-02 5.840000e-02 0.000000e+00
8.760000e-02 5.840000e-02 0.000000e+00
1.022000e-01 5.840000e-02 0.000000e+00
1.168000e-01 5.840000e-02 0.000000e+00
1.314000e-01 5.840000e-02 0.000000e+00
1.460000e-01 5.840000e-02 0.000000e+00
1.606000e-01 5.840000e-02 0.000000e+00
1.752000e-01 5.840000e-02 0.000000e+00
1.898000e-01 5.840000e-02 0.000000e+00
2.044000e-01 5.840000e-02 0.000000e+00
2.190000e-01 5.840000e-02 0.000000e+00
2.336000e-01 5.840000e-02 0.000000e+00
2.482000e-01 5.840000e-02 0.000000e+00
2.628000e-01 5.840000e-02 0.000000e+00
2.774000e-01 5.840000e-02 0.000000e+00
2.920000e-01 5.840000e-02 0.000000e+00
3.066000e-01 5.840000e-02 0.000000e+00
3.212000e-01 5.840000e-02 0.000000e+00
3.358000e-01 5.840000e-02 0.000000e+00
3.504000e-01 5.840000e-02 0.000000e+00
3.650000e-01 5.840000e-02 0.000000e+00
3.796000e-01 5.840000e-02 0.000000e+00
3.942000e-01 5.840000e-02 0.000000e+00
4.088000e-01 5.840000e-02 0.000000e+00
4.234000e-01 5.840000e-02 0.000000e+00
4.380000e-01 5.840000e-02 0.000000e+00
4.526000e-01 5.840000e-02 0.000000e+00
4.672000e-01 5.840000e-02 0.000000e+00
4.818000e-01 5.840000e-02 0.000000e+00
4.964000e-01 5.840000e-02 0.000000e+00
5.110000e-01 5.840000e-02 0.000000e+00
5.256000e-01 5.840000e-02 0.000000e+00
5.402000e-01 5.840000e-02 0.000000e+00
5.548000e-01 5.840000e-02 0.000000e+00
5.694000e-01 5.840000e-02 0.000000e+00
5.840000e-01 5.840000e-02 0.000000e+00
0.000000e+00 7.300000e-02 0.000000e+00
1.460000e-02 7.300000e-02 0.000000e+00
2.920000e-02 7.300000e-02 0.000000e+00
4.380000e-02 7.300000e-02 0.000000e+00
5.840000e-02 7.300000e-02 0.000000e+00
7.300000e-02 7.300000e-02 0.000000e+00
8.760000e-02 7.300000e-02 0.000000e+00
1.022000e-01 7.300000e-02 0.000000e+00
1.168000e-01 7.300000e-02 0.000000e+00
1.314000e-01 7.300000e-02 0.000000e+00
1.460000e-01 7.300000e-02 0.000000e+00
1.606000e-01 7.300000e-02 0.000000e+00
1.752000e-01 7.300000e-02 0.000000e+00
1.898000e-01 7.300000e-02 0.000000e+00
2.044000e-01 7.300000e-02 0.000000e+00
2.190000e-01 7.300000e-02 0.000000e+00
2.336000e-01 7.300000e-02 0.000000e+00
2.482000e-01 7.300000e-02 0.000000e+00
2.628000e-01 7.300000e-02 0.000000e+00
2.774000e-01 7.300000e-02 0.000000e+00
2.920000e-01 7.300000e-02 0.000000e+00
3.066000e-01 7.300000e-02 0.000000e+00
3.212000e-01 7.300000e-02 0.000000e+00
3.358000e-01 7.300000e-02 0.000000e+00
3.504000e-01 7.300000e-02 0.000000e+00
3.650000e-01 7.300000e-02 0.000000e+00
3.796000e-01 7.300000e-02 0.000000e+00
3.942000e-01 7.300000e-02 0.000000e+00
4.088000e-01 7.300000e-02 0.000000e+00
4.234000e-01 7.300000e-02 0.000000e+00
4.380000e-01 7.300000e-02 0.000000e+00
4.526000e-01 7.300000e-02 0.000000e+00
4.672000e-01 7.300000e-02 0.000000e+00
4.818000e-01 7.300000e-02 0.000000e+00
4.964000e-01 7.300000e-02 0.000000e+00
5.110000e-01 7.300000e-02 0.000000e+00
5.256000e-01 7.300000e-02 0.000000e+00
5.402000e-01 7.300000e-02 0.000000e+00
5.548000e-01 7.300000e-02 0.000000e+00
5.694000e-01 7.300000e-02 0.000000e+00
5.840000e-01 7.300000e-02 0.000000e+00
0.000000e+00 8.760000e-02 0.000000e+00
1.460000e-02 8.760000e-02 0.000000e+00
2.920000e-02 8.760000e-02 0.000000e+00
4.380000e-02 8.760000e-02 0.000000e+00
5.840000e-02 8.760000e-02 0.000000e+00
7.300000e-02 8.760000e-02 0.000000e+00
8.760000e-02 8.760000e-02 0.000000e+00
1.022000e-01 8.760000e-02 0.000000e+00
[...]
POINT_DATA 11767
VECTORS Velocity float
0.000000e+00 0.000000e+00 0.000000e+00
4.403859e-03 0.000000e+00 0.000000e+00
-8.211893e-04 0.000000e+00 0.000000e+00
-6.791914e-03 0.000000e+00 0.000000e+00
-1.289415e-02 0.000000e+00 0.000000e+00
-1.684676e-02 0.000000e+00 0.000000e+00
-1.900644e-02 0.000000e+00 0.000000e+00
-1.925898e-02 0.000000e+00 0.000000e+00
-1.819375e-02 0.000000e+00 0.000000e+00
-1.611123e-02 0.000000e+00 0.000000e+00
-1.336642e-02 0.000000e+00 0.000000e+00
-1.008747e-02 0.000000e+00 0.000000e+00
-6.383252e-03 0.000000e+00 0.000000e+00
-2.196128e-03 0.000000e+00 0.000000e+00
2.543356e-03 0.000000e+00 0.000000e+00
8.083996e-03 0.000000e+00 0.000000e+00
1.397717e-02 0.000000e+00 0.000000e+00
1.975392e-02 0.000000e+00 0.000000e+00
2.581647e-02 0.000000e+00 0.000000e+00
3.196906e-02 0.000000e+00 0.000000e+00
3.828090e-02 0.000000e+00 0.000000e+00
4.461905e-02 0.000000e+00 0.000000e+00
5.082091e-02 0.000000e+00 0.000000e+00
5.664800e-02 0.000000e+00 0.000000e+00
6.187107e-02 0.000000e+00 0.000000e+00
6.647875e-02 0.000000e+00 0.000000e+00
7.049651e-02 0.000000e+00 0.000000e+00
7.417861e-02 0.000000e+00 0.000000e+00
7.762314e-02 0.000000e+00 0.000000e+00
8.102737e-02 0.000000e+00 0.000000e+00
8.425919e-02 0.000000e+00 0.000000e+00
8.715577e-02 0.000000e+00 0.000000e+00
8.933676e-02 0.000000e+00 0.000000e+00
9.035160e-02 0.000000e+00 0.000000e+00
9.008373e-02 0.000000e+00 0.000000e+00
8.837074e-02 0.000000e+00 0.000000e+00
8.423113e-02 0.000000e+00 0.000000e+00
7.873288e-02 0.000000e+00 0.000000e+00
6.558510e-02 0.000000e+00 0.000000e+00
4.967667e-02 0.000000e+00 0.000000e+00
0.000000e+00 0.000000e+00 0.000000e+00
0.000000e+00 6.064975e-15 0.000000e+00
4.403859e-03 -8.389274e-14 0.000000e+00
-8.211893e-04 -8.249230e-15 0.000000e+00
-6.791914e-03 5.684043e-14 0.000000e+00
-1.289415e-02 3.234742e-15 0.000000e+00
-1.684676e-02 1.152243e-14 0.000000e+00
-1.900644e-02 5.963591e-14 0.000000e+00
-1.925898e-02 8.823995e-16 0.000000e+00
-1.819375e-02 -3.633710e-14 0.000000e+00
-1.611123e-02 4.921476e-14 0.000000e+00
-1.336642e-02 -1.789440e-14 0.000000e+00
-1.008747e-02 -4.379564e-15 0.000000e+00
-6.383252e-03 5.117052e-14 0.000000e+00
-2.196128e-03 8.158413e-15 0.000000e+00
2.543356e-03 5.508266e-14 0.000000e+00
8.083996e-03 4.249246e-14 0.000000e+00
1.397717e-02 3.604499e-14 0.000000e+00
1.975392e-02 1.003543e-13 0.000000e+00
2.581647e-02 9.703303e-14 0.000000e+00
3.196906e-02 8.612952e-15 0.000000e+00
3.828090e-02 6.745707e-14 0.000000e+00
4.461905e-02 4.375773e-14 0.000000e+00
5.082091e-02 3.160007e-14 0.000000e+00
5.664800e-02 -4.854088e-15 0.000000e+00
6.187107e-02 -2.315086e-14 0.000000e+00
6.647875e-02 -2.455160e-14 0.000000e+00
7.049651e-02 -6.630225e-14 0.000000e+00
7.417861e-02 -1.670500e-14 0.000000e+00
7.762314e-02 -4.920724e-14 0.000000e+00
8.102737e-02 4.558112e-15 0.000000e+00
8.425919e-02 3.639148e-14 0.000000e+00
8.715577e-02 1.460945e-13 0.000000e+00
8.933676e-02 1.277405e-13 0.000000e+00
9.035160e-02 1.488347e-13 0.000000e+00
9.008373e-02 9.820485e-14 0.000000e+00
8.837074e-02 1.196076e-13 0.000000e+00
8.423113e-02 6.582830e-14 0.000000e+00
7.873288e-02 1.331565e-13 0.000000e+00
6.558510e-02 1.302939e-14 0.000000e+00
4.967667e-02 1.842799e-14 0.000000e+00
0.000000e+00 -2.438202e-15 0.000000e+00
0.000000e+00 -1.272476e-13 0.000000e+00
4.403859e-03 8.222215e-14 0.000000e+00
-8.211893e-04 -8.619935e-14 0.000000e+00
-6.791914e-03 2.724351e-14 0.000000e+00
-1.289415e-02 -2.258329e-14 0.000000e+00
-1.684676e-02 4.914400e-15 0.000000e+00
-1.900644e-02 5.067889e-14 0.000000e+00
-1.925898e-02 -3.774342e-14 0.000000e+00
-1.819375e-02 -7.928708e-15 0.000000e+00
-1.611123e-02 1.002496e-14 0.000000e+00
-1.336642e-02 1.655322e-14 0.000000e+00
-1.008747e-02 -6.169773e-14 0.000000e+00
-6.383252e-03 1.009665e-13 0.000000e+00
-2.196128e-03 -6.051156e-14 0.000000e+00
2.543356e-03 7.692425e-14 0.000000e+00
8.083996e-03 6.944799e-15 0.000000e+00
1.397717e-02 3.890611e-14 0.000000e+00
1.975392e-02 8.487363e-14 0.000000e+00
2.581647e-02 1.654724e-13 0.000000e+00
3.196906e-02 -1.621267e-14 0.000000e+00
3.828090e-02 1.075808e-13 0.000000e+00
4.461905e-02 1.134464e-14 0.000000e+00
5.082091e-02 4.355642e-14 0.000000e+00
5.664800e-02 6.761526e-15 0.000000e+00
6.187107e-02 -5.562320e-14 0.000000e+00
6.647875e-02 5.905968e-15 0.000000e+00
7.049651e-02 -3.926831e-14 0.000000e+00
7.417861e-02 -1.645119e-15 0.000000e+00
7.762314e-02 -3.762159e-14 0.000000e+00
8.102737e-02 5.307281e-14 0.000000e+00
8.425919e-02 6.150086e-14 0.000000e+00
8.715577e-02 1.632363e-13 0.000000e+00
8.933676e-02 2.222745e-13 0.000000e+00
9.035160e-02 2.495924e-13 0.000000e+00
9.008373e-02 2.270374e-13 0.000000e+00
8.837074e-02 1.887605e-13 0.000000e+00
8.423113e-02 2.065743e-13 0.000000e+00
7.873288e-02 1.866486e-13 0.000000e+00
6.558510e-02 1.403151e-13 0.000000e+00
4.967667e-02 1.667107e-14 0.000000e+00
0.000000e+00 -7.544493e-14 0.000000e+00
0.000000e+00 -4.231793e-14 0.000000e+00
4.403859e-03 2.171255e-14 0.000000e+00
-8.211893e-04 -4.144059e-14 0.000000e+00
-6.791914e-03 -2.913198e-14 0.000000e+00
-1.289415e-02 -1.497231e-15 0.000000e+00
-1.684676e-02 1.246885e-14 0.000000e+00
-1.900644e-02 6.530431e-14 0.000000e+00
-1.925898e-02 -1.760509e-14 0.000000e+00
-1.819375e-02 -1.402708e-14 0.000000e+00
-1.611123e-02 1.611991e-14 0.000000e+00
-1.336642e-02 -3.452595e-15 0.000000e+00
-1.008747e-02 -5.815422e-14 0.000000e+00
-6.383252e-03 1.070616e-13 0.000000e+00
-2.196128e-03 -9.860307e-14 0.000000e+00
2.543356e-03 1.002581e-13 0.000000e+00
8.083996e-03 7.919838e-14 0.000000e+00
1.397717e-02 5.197276e-14 0.000000e+00
1.975392e-02 1.137359e-13 0.000000e+00
2.581647e-02 1.118577e-13 0.000000e+00
3.196906e-02 -6.665467e-14 0.000000e+00
3.828090e-02 1.111521e-13 0.000000e+00
4.461905e-02 -3.595930e-15 0.000000e+00
5.082091e-02 2.060721e-14 0.000000e+00
5.664800e-02 7.396284e-14 0.000000e+00
6.187107e-02 -6.652703e-14 0.000000e+00
6.647875e-02 6.085874e-14 0.000000e+00
7.049651e-02 -2.849296e-14 0.000000e+00
7.417861e-02 3.689083e-14 0.000000e+00
7.762314e-02 4.319030e-14 0.000000e+00
8.102737e-02 8.104464e-14 0.000000e+00
8.425919e-02 4.484976e-14 0.000000e+00
8.715577e-02 1.650290e-13 0.000000e+00
8.933676e-02 2.079284e-13 0.000000e+00
9.035160e-02 2.927643e-13 0.000000e+00
9.008373e-02 2.764837e-13 0.000000e+00
8.837074e-02 2.401284e-13 0.000000e+00
8.423113e-02 2.546065e-13 0.000000e+00
7.873288e-02 2.509729e-13 0.000000e+00
6.558510e-02 1.627423e-13 0.000000e+00
4.967667e-02 1.030190e-13 0.000000e+00
0.000000e+00 -9.104086e-14 0.000000e+00
0.000000e+00 4.641718e-14 0.000000e+00
4.403859e-03 -8.569767e-14 0.000000e+00
-8.211893e-04 1.790077e-14 0.000000e+00
-6.791914e-03 -4.053474e-14 0.000000e+00
-1.289415e-02 4.013552e-14 0.000000e+00
-1.684676e-02 -2.208432e-14 0.000000e+00
-1.900644e-02 5.145871e-14 0.000000e+00
-1.925898e-02 -2.813117e-14 0.000000e+00
-1.819375e-02 6.895295e-16 0.000000e+00
-1.611123e-02 3.480201e-14 0.000000e+00
-1.336642e-02 -1.739767e-14 0.000000e+00
-1.008747e-02 -3.280462e-14 0.000000e+00
-6.383252e-03 1.281582e-13 0.000000e+00
-2.196128e-03 -2.837736e-14 0.000000e+00
2.543356e-03 5.294961e-14 0.000000e+00
8.083996e-03 5.022247e-14 0.000000e+00
1.397717e-02 2.616672e-14 0.000000e+00
1.975392e-02 9.252323e-14 0.000000e+00
2.581647e-02 1.387122e-13 0.000000e+00
3.196906e-02 -5.078655e-14 0.000000e+00
3.828090e-02 1.251927e-13 0.000000e+00
4.461905e-02 -5.127967e-14 0.000000e+00
5.082091e-02 5.230877e-14 0.000000e+00
5.664800e-02 3.532447e-14 0.000000e+00
6.187107e-02 -4.222768e-14 0.000000e+00
6.647875e-02 5.117148e-14 0.000000e+00
7.049651e-02 -1.100002e-14 0.000000e+00
7.417861e-02 3.631564e-14 0.000000e+00
7.762314e-02 1.729776e-14 0.000000e+00
8.102737e-02 6.783440e-14 0.000000e+00
8.425919e-02 2.843822e-14 0.000000e+00
8.715577e-02 1.487237e-13 0.000000e+00
8.933676e-02 1.300265e-13 0.000000e+00
9.035160e-02 2.251411e-13 0.000000e+00
9.008373e-02 1.966227e-13 0.000000e+00
8.837074e-02 2.051406e-13 0.000000e+00
8.423113e-02 2.182605e-13 0.000000e+00
7.873288e-02 2.014226e-13 0.000000e+00
6.558510e-02 1.724469e-13 0.000000e+00
4.967667e-02 6.726713e-14 0.000000e+00
0.000000e+00 -7.405124e-14 0.000000e+00
0.000000e+00 -1.465504e-13 0.000000e+00
4.403859e-03 2.008488e-14 0.000000e+00
-8.211893e-04 -3.841322e-14 0.000000e+00
-6.791914e-03 -1.082638e-14 0.000000e+00
-1.289415e-02 5.326722e-15 0.000000e+00
-1.684676e-02 1.437978e-14 0.000000e+00
-1.900644e-02 2.104001e-14 0.000000e+00
-1.925898e-02 -2.628226e-14 0.000000e+00
-1.819375e-02 8.636600e-15 0.000000e+00
-1.611123e-02 2.567822e-15 0.000000e+00
-1.336642e-02 1.099485e-14 0.000000e+00
-1.008747e-02 -1.634574e-14 0.000000e+00
-6.383252e-03 8.677801e-14 0.000000e+00
-2.196128e-03 -6.538250e-14 0.000000e+00
2.543356e-03 6.403810e-14 0.000000e+00
8.083996e-03 2.102775e-14 0.000000e+00
1.397717e-02 -2.176884e-14 0.000000e+00
1.975392e-02 3.295367e-14 0.000000e+00
2.581647e-02 5.543686e-14 0.000000e+00
3.196906e-02 -2.598098e-14 0.000000e+00
3.828090e-02 7.586730e-14 0.000000e+00
4.461905e-02 -2.237870e-14 0.000000e+00
5.082091e-02 1.771103e-14 0.000000e+00
5.664800e-02 1.745867e-14 0.000000e+00
6.187107e-02 -5.307819e-14 0.000000e+00
6.647875e-02 2.211844e-14 0.000000e+00
7.049651e-02 -3.565484e-14 0.000000e+00
7.417861e-02 -7.029936e-15 0.000000e+00
7.762314e-02 -3.062810e-14 0.000000e+00
8.102737e-02 1.956820e-14 0.000000e+00
8.425919e-02 9.588475e-15 0.000000e+00
8.715577e-02 8.795394e-14 0.000000e+00
8.933676e-02 4.159891e-14 0.000000e+00
9.035160e-02 1.213074e-13 0.000000e+00
9.008373e-02 5.551968e-14 0.000000e+00
8.837074e-02 1.308336e-13 0.000000e+00
8.423113e-02 8.428652e-14 0.000000e+00
7.873288e-02 1.179740e-13 0.000000e+00
6.558510e-02 4.517662e-14 0.000000e+00
4.967667e-02 8.478622e-14 0.000000e+00
0.000000e+00 -3.612250e-14 0.000000e+00
0.000000e+00 0.000000e+00 0.000000e+00
4.403859e-03 0.000000e+00 0.000000e+00
-8.211893e-04 0.000000e+00 0.000000e+00
-6.791914e-03 0.000000e+00 0.000000e+00
-1.289415e-02 0.000000e+00 0.000000e+00
-1.684676e-02 0.000000e+00 0.000000e+00
-1.900644e-02 0.000000e+00 0.000000e+00
-1.925898e-02 0.000000e+00 0.000000e+00
-1.819375e-02 0.000000e+00 0.000000e+00
-1.611123e-02 0.000000e+00 0.000000e+00
-1.336642e-02 0.000000e+00 0.000000e+00
-1.008747e-02 0.000000e+00 0.000000e+00
-6.383252e-03 0.000000e+00 0.000000e+00
-2.196128e-03 0.000000e+00 0.000000e+00
2.543356e-03 0.000000e+00 0.000000e+00
8.083996e-03 0.000000e+00 0.000000e+00
1.397717e-02 0.000000e+00 0.000000e+00
1.975392e-02 0.000000e+00 0.000000e+00
2.581647e-02 0.000000e+00 0.000000e+00
3.196906e-02 0.000000e+00 0.000000e+00
3.828090e-02 0.000000e+00 0.000000e+00
4.461905e-02 0.000000e+00 0.000000e+00
5.082091e-02 0.000000e+00 0.000000e+00
5.664800e-02 0.000000e+00 0.000000e+00
6.187107e-02 0.000000e+00 0.000000e+00
6.647875e-02 0.000000e+00 0.000000e+00
7.049651e-02 0.000000e+00 0.000000e+00
7.417861e-02 0.000000e+00 0.000000e+00
7.762314e-02 0.000000e+00 0.000000e+00
8.102737e-02 0.000000e+00 0.000000e+00
8.425919e-02 0.000000e+00 0.000000e+00
8.715577e-02 0.000000e+00 0.000000e+00
8.933676e-02 0.000000e+00 0.000000e+00
9.035160e-02 0.000000e+00 0.000000e+00
9.008373e-02 0.000000e+00 0.000000e+00
8.837074e-02 0.000000e+00 0.000000e+00
8.423113e-02 0.000000e+00 0.000000e+00
7.873288e-02 0.000000e+00 0.000000e+00
6.558510e-02 0.000000e+00 0.000000e+00
4.967667e-02 0.000000e+00 0.000000e+00
0.000000e+00 0.000000e+00 0.000000e+00
0.000000e+00 0.000000e+00 -1.888401e-03
-1.474623e-02 0.000000e+00 2.591511e-03
-2.710357e-02 0.000000e+00 6.021061e-03
-3.828060e-02 0.000000e+00 4.961408e-03
-4.663513e-02 0.000000e+00 3.478107e-03
-5.250277e-02 0.000000e+00 1.065888e-03
-5.567241e-02 0.000000e+00 -9.206774e-04
-5.692794e-02 0.000000e+00 -2.618646e-03
-5.662818e-02 0.000000e+00 -3.791608e-03
-5.535699e-02 0.000000e+00 -4.622315e-03
-5.336916e-02 0.000000e+00 -5.186788e-03
-5.099885e-02 0.000000e+00 -5.597537e-03
-4.838805e-02 0.000000e+00 -5.934996e-03
-4.575949e-02 0.000000e+00 -6.253481e-03
-4.313219e-02 0.000000e+00 -6.733834e-03
-4.050571e-02 0.000000e+00 -7.205935e-03
-3.776638e-02 0.000000e+00 -7.262264e-03
-3.477634e-02 0.000000e+00 -7.409457e-03
-3.145664e-02 0.000000e+00 -7.693072e-03
-2.771960e-02 0.000000e+00 -7.915441e-03
-2.347161e-02 0.000000e+00 -8.177001e-03
-1.871000e-02 0.000000e+00 -8.311427e-03
-1.349632e-02 0.000000e+00 -8.269501e-03
-8.065763e-03 0.000000e+00 -7.961679e-03
-2.652168e-03 0.000000e+00 -7.492247e-03
2.501064e-03 0.000000e+00 -6.975735e-03
7.350303e-03 0.000000e+00 -6.553699e-03
1.186696e-02 0.000000e+00 -6.285894e-03
1.621842e-02 0.000000e+00 -6.153274e-03
2.043413e-02 0.000000e+00 -6.107615e-03
2.472389e-02 0.000000e+00 -5.951701e-03
2.895526e-02 0.000000e+00 -5.629574e-03
3.307276e-02 0.000000e+00 -4.814105e-03
3.615973e-02 0.000000e+00 -3.499067e-03
3.773462e-02 0.000000e+00 -2.150501e-03
3.727485e-02 0.000000e+00 1.271336e-04
3.524610e-02 0.000000e+00 9.946603e-04
3.161238e-02 0.000000e+00 5.979965e-03
2.549928e-02 0.000000e+00 7.228431e-03
1.711657e-02 0.000000e+00 2.284785e-02
0.000000e+00 0.000000e+00 4.308064e-02
0.000000e+00 -1.008875e-13 -1.888401e-03
-1.474623e-02 -3.514114e-14 2.591511e-03
-2.710357e-02 -1.546753e-14 6.021061e-03
-3.828060e-02 6.544606e-15 4.961408e-03
-4.663513e-02 -1.214208e-14 3.478107e-03
-5.250277e-02 -7.074863e-16 1.065888e-03
-5.567241e-02 -3.641573e-14 -9.206774e-04
-5.692794e-02 -6.520094e-15 -2.618646e-03
-5.662818e-02 1.380681e-14 -3.791608e-03
-5.535699e-02 4.091105e-15 -4.622315e-03
-5.336916e-02 3.627643e-14 -5.186788e-03
-5.099885e-02 7.303965e-14 -5.597537e-03
-4.838805e-02 8.944404e-14 -5.934996e-03
-4.575949e-02 1.041092e-13 -6.253481e-03
-4.313219e-02 1.309680e-13 -6.733834e-03
-4.050571e-02 7.019706e-14 -7.205935e-03
-3.776638e-02 6.998019e-14 -7.262264e-03
-3.477634e-02 3.448358e-14 -7.409457e-03
-3.145664e-02 -7.556547e-14 -7.693072e-03
-2.771960e-02 -6.684888e-15 -7.915441e-03
-2.347161e-02 1.567213e-14 -8.177001e-03
-1.871000e-02 -3.993428e-14 -8.311427e-03
-1.349632e-02 -6.848912e-14 -8.269501e-03
-8.065763e-03 -1.406047e-13 -7.961679e-03
-2.652168e-03 -1.394527e-13 -7.492247e-03
2.501064e-03 -2.883795e-13 -6.975735e-03
7.350303e-03 -3.734921e-13 -6.553699e-03
1.186696e-02 -5.382968e-13 -6.285894e-03
1.621842e-02 -6.889069e-13 -6.153274e-03
2.043413e-02 -7.362175e-13 -6.107615e-03
2.472389e-02 -7.534163e-13 -5.951701e-03
2.895526e-02 -5.448739e-13 -5.629574e-03
3.307276e-02 -2.359105e-13 -4.814105e-03
3.615973e-02 2.977285e-13 -3.499067e-03
3.773462e-02 2.110690e-13 -2.150501e-03
3.727485e-02 1.457378e-13 1.271336e-04
3.524610e-02 -1.307578e-14 9.946603e-04
3.161238e-02 2.885552e-14 5.979965e-03
2.549928e-02 -1.331772e-13 7.228431e-03
1.711657e-02 1.781778e-13 2.284785e-02
0.000000e+00 -2.015010e-13 4.308064e-02
0.000000e+00 -1.387998e-13 -1.888401e-03
-1.474623e-02 -9.506301e-14 2.591511e-03
-2.710357e-02 -7.872776e-14 6.021061e-03
-3.828060e-02 -3.012260e-14 4.961408e-03
-4.663513e-02 -1.793386e-14 3.478107e-03
-5.250277e-02 1.209522e-14 1.065888e-03
-5.567241e-02 -7.180795e-14 -9.206774e-04
-5.692794e-02 2.975832e-14 -2.618646e-03
-5.662818e-02 2.153836e-14 -3.791608e-03
-5.535699e-02 -2.233727e-14 -4.622315e-03
-5.336916e-02 6.371138e-14 -5.186788e-03
-5.099885e-02 4.373518e-14 -5.597537e-03
-4.838805e-02 8.160062e-14 -5.934996e-03
-4.575949e-02 9.297471e-14 -6.253481e-03
-4.313219e-02 1.864049e-13 -6.733834e-03
-4.050571e-02 5.372075e-14 -7.205935e-03
-3.776638e-02 9.535373e-14 -7.262264e-03
-3.477634e-02 5.323396e-14 -7.409457e-03
-3.145664e-02 -3.927637e-14 -7.693072e-03
-2.771960e-02 3.313407e-14 -7.915441e-03
-2.347161e-02 2.455704e-14 -8.177001e-03
-1.871000e-02 -4.218716e-14 -8.311427e-03
-1.349632e-02 -3.556939e-14 -8.269501e-03
-8.065763e-03 -1.949396e-13 -7.961679e-03
-2.652168e-03 1.782956e-15 -7.492247e-03
2.501064e-03 -1.824828e-13 -6.975735e-03
7.350303e-03 -3.231245e-13 -6.553699e-03
1.186696e-02 -3.968813e-13 -6.285894e-03
1.621842e-02 -5.368241e-13 -6.153274e-03
2.043413e-02 -6.032664e-13 -6.107615e-03
2.472389e-02 -7.634670e-13 -5.951701e-03
2.895526e-02 -4.788031e-13 -5.629574e-03
3.307276e-02 -3.698319e-13 -4.814105e-03
3.615973e-02 8.126929e-14 -3.499067e-03
3.773462e-02 1.753445e-13 -2.150501e-03
3.727485e-02 1.055365e-13 1.271336e-04
3.524610e-02 -6.103794e-14 9.946603e-04
3.161238e-02 -5.352816e-14 5.979965e-03
2.549928e-02 -1.164389e-13 7.228431e-03
1.711657e-02 1.769219e-13 2.284785e-02
0.000000e+00 -2.640679e-13 4.308064e-02
0.000000e+00 -3.709651e-14 -1.888401e-03
-1.474623e-02 -6.654231e-14 2.591511e-03
-2.710357e-02 -8.113381e-14 6.021061e-03
-3.828060e-02 -3.649657e-14 4.961408e-03
-4.663513e-02 -1.743859e-14 3.478107e-03
-5.250277e-02 1.042889e-14 1.065888e-03
-5.567241e-02 -8.906460e-14 -9.206774e-04
-5.692794e-02 3.240175e-14 -2.618646e-03
-5.662818e-02 -1.745572e-14 -3.791608e-03
-5.535699e-02 -4.481463e-14 -4.622315e-03
-5.336916e-02 4.203998e-14 -5.186788e-03
-5.099885e-02 5.729684e-15 -5.597537e-03
-4.838805e-02 1.785748e-14 -5.934996e-03
-4.575949e-02 5.585425e-14 -6.253481e-03
-4.313219e-02 1.924747e-13 -6.733834e-03
-4.050571e-02 2.618626e-14 -7.205935e-03
-3.776638e-02 1.202582e-13 -7.262264e-03
-3.477634e-02 3.693663e-14 -7.409457e-03
-3.145664e-02 -6.306797e-14 -7.693072e-03
-2.771960e-02 6.672433e-14 -7.915441e-03
-2.347161e-02 2.325621e-14 -8.177001e-03
-1.871000e-02 -3.220117e-15 -8.311427e-03
-1.349632e-02 5.685074e-14 -8.269501e-03
-8.065763e-03 -9.963263e-14 -7.961679e-03
-2.652168e-03 5.767386e-14 -7.492247e-03
2.501064e-03 3.253638e-14 -6.975735e-03
7.350303e-03 -2.952030e-14 -6.553699e-03
1.186696e-02 5.157530e-14 -6.285894e-03
1.621842e-02 -1.974837e-13 -6.153274e-03
2.043413e-02 -1.992057e-13 -6.107615e-03
2.472389e-02 -2.490155e-13 -5.951701e-03
2.895526e-02 -1.949255e-13 -5.629574e-03
3.307276e-02 -4.131341e-13 -4.814105e-03
3.615973e-02 -1.882568e-13 -3.499067e-03
3.773462e-02 -6.913221e-14 -2.150501e-03
3.727485e-02 2.324494e-15 1.271336e-04
3.524610e-02 -1.285772e-13 9.946603e-04
3.161238e-02 -2.658293e-14 5.979965e-03
2.549928e-02 -1.935934e-13 7.228431e-03
1.711657e-02 1.799664e-13 2.284785e-02
0.000000e+00 -3.254302e-13 4.308064e-02
0.000000e+00 -6.392266e-14 -1.888401e-03
-1.474623e-02 -4.666684e-14 2.591511e-03
-2.710357e-02 -1.880285e-14 6.021061e-03
-3.828060e-02 -4.430838e-14 4.961408e-03
-4.663513e-02 -2.313338e-14 3.478107e-03
-5.250277e-02 -2.320232e-14 1.065888e-03
-5.567241e-02 -8.492019e-14 -9.206774e-04
-5.692794e-02 2.441087e-14 -2.618646e-03
-5.662818e-02 -4.595537e-15 -3.791608e-03
-5.535699e-02 -4.080462e-14 -4.622315e-03
-5.336916e-02 3.174657e-14 -5.186788e-03
-5.099885e-02 8.501233e-15 -5.597537e-03
-4.838805e-02 1.798609e-14 -5.934996e-03
-4.575949e-02 2.426656e-14 -6.253481e-03
-4.313219e-02 1.217325e-13 -6.733834e-03
-4.050571e-02 -3.832169e-15 -7.205935e-03
-3.776638e-02 6.214542e-14 -7.262264e-03
-3.477634e-02 5.634616e-14 -7.409457e-03
-3.145664e-02 -3.903876e-14 -7.693072e-03
-2.771960e-02 -3.899957e-15 -7.915441e-03
-2.347161e-02 -5.956873e-14 -8.177001e-03
-1.871000e-02 -3.165719e-14 -8.311427e-03
-1.349632e-02 1.480949e-14 -8.269501e-03
-8.065763e-03 -1.453825e-13 -7.961679e-03
-2.652168e-03 1.168081e-13 -7.492247e-03
2.501064e-03 -5.147647e-14 -6.975735e-03
7.350303e-03 -9.359506e-14 -6.553699e-03
1.186696e-02 -1.037099e-13 -6.285894e-03
1.621842e-02 -2.293492e-13 -6.153274e-03
2.043413e-02 -2.662479e-13 -6.107615e-03
2.472389e-02 -3.569618e-13 -5.951701e-03
2.895526e-02 -2.718706e-13 -5.629574e-03
3.307276e-02 -3.677170e-13 -4.814105e-03
3.615973e-02 -1.229068e-13 -3.499067e-03
3.773462e-02 -4.618291e-14 -2.150501e-03
3.727485e-02 8.588917e-15 1.271336e-04
3.524610e-02 -9.429109e-14 9.946603e-04
3.161238e-02 1.679803e-14 5.979965e-03
2.549928e-02 -1.472089e-13 7.228431e-03
1.711657e-02 1.542182e-13 2.284785e-02
0.000000e+00 -1.877239e-13 4.308064e-02
0.000000e+00 1.610430e-16 -1.888401e-03
-1.474623e-02 -6.145585e-14 2.591511e-03
-2.710357e-02 -5.255193e-14 6.021061e-03
-3.828060e-02 -2.297815e-14 4.961408e-03
-4.663513e-02 -3.124069e-14 3.478107e-03
-5.250277e-02 -9.845118e-15 1.065888e-03